A*********************************************************************
*** WorkDir at /home/oxygen/FOUDAAE/SCRATCH/cf3_ground_opt cleaned ***
**********************************************************************
   This run of MOLCAS is using the pymolcas driver

                             OPE
                             OPE          NMOL  CASOP  ENMOLC A   SO
                 OPE        NMOLC        AS  OP EN  MO LC     AS  OP
                OPENM       OL CA        SO  PE NM  OL CA     SOP EN
                OP EN      MO   LC       AS  OP ENMOL  CASO   PENMOL
                OP  EN     MO   LC       AS  OP EN     MO     LC ASO
               OP   E  NMOL  C  AS       OP  EN MO     LC     AS  OP
               OP  E   NMO   LC AS        OPEN  MO     LCASOP EN   M
               O  PEN   MO  LCA  SO
            OPE   NMO   L   CAS    OP
        OPENMOL  CASOP     ENMOL   CASOPE
     OPENMOLCA   SOPENMOLCASOPEN   MOLCASOPE
    OPENMOLCAS   OP           EN   MOL    CAS
    OPENMOLCAS       OP  ENM        O     LCA
    OPENMOLCAS    OPEN  MOLCASO     P  E  NMO
    OPENMOLCAS     OP               E  N  MOL
    OPENMOLCA   SO           PENM   O  L  CAS    OPEN    MO    LCAS
    OPENMOLCA   SOP           ENM   O  L  CAS   OP  EN  MOLC  AS   O
    OPENMOLCA   SOPE           NM      O  LCA   S      OP  EN MO
    OPENMOLC                AS         O  PEN   M      OL  CA  SOPE
    OPENMO        LCASOPE  NMOL        C  ASO   P      ENMOLC     AS
    OPE     NMO      LCA  SO     P     E   NM   OL  CA SO  PE N   MO
          OPENMOLCA            SOPE   NMO        LCAS  O    P  ENMO
     OPENMOLCASOPENMOLCASOPENMOLCASOPENMOLCA
        OPENMOLCASOPENMOLCASOPENMOLCASOPE
            OPENMOLCASOPENMOLCASOPENM
               OPENMOLCASOPENMOLCA        version: 19.11
                   OPENMOLCASO
                       OPE                tag: 1295-gb0180ad-dirty

 OpenMolcas is free software; you can redistribute it and/or modify it
 under the terms of the GNU Lesser General Public License version 2.1.
 OpenMolcas is distributed in the hope that it will be useful, but it
 is provided "as is" and without any express or implied warranties.
 For more details see the full text of the license in the file
 LICENSE or in <http://www.gnu.org/licenses/>.

                 Copyright (C) The OpenMolcas Authors
           For the author list and the recommended citation,
                   consult the file CONTRIBUTORS.md

           *************************************************
           * pymolcas version py2.21                       *
           *   build 2bd16bb389df3613e1e89259b2a6a5b3      *
           *   (after the EMIL interpreter by V. Veryazov) *
           *************************************************

configuration info
------------------
Host name: dirac.aps.anl.gov (Linux)
C Compiler ID: Intel
C flags: -std=gnu99 -gcc-sys -qopenmp
Fortran Compiler ID: Intel
Fortran flags: -fpp -i8 -r8 -heap-arrays -qopenmp
Definitions: _MOLCAS_;_I8_;_LINUX_;_MOLCAS_MPP_;_SCALAPACK_;_GA_
Parallel: ON (GA=ON)


   ---------------------------------------------------------------------------------------------------------
  |
  |              Project: cf3_ground_opt
  |       Submitted from: /home/oxygen16/FOUDAAE/ESCA_Molecule/auger/electronic_structure/CF3/new/ground_opt
  |         Scratch area: /home/oxygen/FOUDAAE/SCRATCH/cf3_ground_opt
  |      Save outputs to: /home/oxygen16/FOUDAAE/ESCA_Molecule/auger/electronic_structure/CF3/new/ground_opt
  |               Molcas: /home/oxygen/FOUDAAE/OpenMolcas/OpenMolcas-aeaf-intel-2021.4.0
  |
  | Scratch area is empty
  |
  |       MOLCAS_DRIVER = /home/oxygen16/FOUDAAE/OpenMolcas/OpenMolcas-aeaf-intel-2021.4.0/pymolcas
  | MOLCAS_KEEP_WORKDIR = YES
  |       MOLCAS_MOLDEN = YES
  |       MOLCAS_MXROOT = 1000
  |  MOLCAS_NEW_WORKDIR = YES
  |       MOLCAS_NPROCS = 1
  |         MOLCAS_SAVE = REPL
  |       MOLCAS_SOURCE = /home/oxygen/FOUDAAE/OpenMolcas/OpenMolcas-aeaf
  |    MOLCAS_STRUCTURE = 0
  |
   ---------------------------------------------------------------------------------------------------------

++ ---------   Input file   ---------

&SEWARD
Basis set
        O.cc-pVDZ
        O1              2.1045665482        0.4624131451       -0.0000000000
            O2          0.2630129100       -3.4084985275        0.0000000000
End of basis
Basis set
        C.cc-pVTZ
                C2         -2.3315748948        0.3607607710       -0.0000000000
End of basis
Basis set
        C.cc-pVDZ
        C3      0.1701936000       -1.1389453704        0.0000000000
                C4              4.5781089237       -0.7271427005        0.0000000000
                C5              6.5138344115        1.3722660590       -0.0000000000
End of basis
Basis set
        F.cc-pVDZ
                F6      -4.2899578837       -1.1997424117        0.0000000000
                F7     -2.4799414196        1.8338969094       -2.0453712839
                F8     -2.4799414196        1.8338969094        2.0453712839
End of basis
Basis set
        H.cc-pVDZ
                H9              4.7168459744       -1.9261736704       -1.6707600828
                H10             4.7168459744       -1.9261736704        1.6707600828
                H11             6.3076573115        2.5550709898       -1.6745402537
                H12             6.3076573115        2.5550709898        1.6745402537
                H13             8.4088873192        0.5580793570       -0.0000000000
End of basis
RICD

&SCF

&RASSCF
        Symmetry= 1

    Spin=1

    Charge=0

        NACTEL= 38 1 1
        CiRoot= 1 1 1
        Inactive=17
    RAS1 = 1
    RAS2 = 18
        RAS3 = 1
        SUPSym
        2
        1 6
        1 37
        Alter=1
 1 6 18

>>> COPY $CurrDir/$Project.rasscf.molden $CurrDir/$Project.ground.molden

&CASPT2
        MultiState= all
        maxiter=1000
        IMAG=0.4
        NOMUlt

&RASSCF
        Symmetry= 1

    Spin=1

    Charge=0

        NACTEL= 38 1 1
        CiRoot= 1 1 1
        Inactive=17
    RAS1 = 1
    RAS2 = 18
        RAS3 = 1
        HEXS = 1
 1
        SUPSym
        2
        1 18
        1 37

>>> COPY $CurrDir/$Project.rasscf.molden $CurrDir/$Project.sch.molden

&CASPT2
        MultiState= all
        maxiter=1000
        IMAG=0.4
        NOMUlt

&RASSCF
        Symmetry= 1

    Spin=2

    Charge=+1

        NACTEL= 37 1 1
        CiRoot= 50 50 1
        Inactive=17
    RAS1 = 1
    RAS2 = 18
        RAS3 = 1
        SUPSym
        2
        1 18
        1 37

>>> COPY $CurrDir/$Project.rasscf.molden $CurrDir/$Project.val_cation.molden

&CASPT2
        MultiState= all
        maxiter=1000
        IMAG=0.4
        NOMUlt

-- ----------------------------------

--- Start Module: seward at Tue Apr 19 10:54:25 2022 ---
 
()()()()()()()()()()()()()()()()()()()()()()()()()()()()()()()()()()()()()()()()()()()()()()()()()()

                                              &SEWARD

                       only a single process is used, running in SERIAL mode
                       available to each process: 10 GB of memory, 20 threads
                                            pid: 277213
()()()()()()()()()()()()()()()()()()()()()()()()()()()()()()()()()()()()()()()()()()()()()()()()()()
 
               SEWARD will generate:
                  Multipole Moment integrals up to order  2
                  Kinetic Energy integrals
                  Nuclear Attraction integrals (point charge)
                  One-Electron Hamiltonian integrals
                  Velocity integrals
                  Orbital angular momentum around ( 0.0000 -0.0000  0.0000 )
                  Velocity quadrupole around ( 0.0000 -0.0000  0.0000 )
                  RI decomposed two-electron repulsion integrals stored Cholesky style
                   - acCD auxiliary basis
                   - CD Threshold:   0.10E-03
 
                   Integrals are discarded if absolute value <: 0.10E-13
                   Integral cutoff threshold is set to       <: 0.10E-15
 
++    Symmetry information:
      ---------------------
 
                    Character Table for C1 
 
                             E  
                    a        1  x, y, xy, Rz, z, xz, Ry, yz, Rx, I
--
 
 
++    Basis set information:
      ----------------------
 
 
      Basis set label: O.CC-PVDZ.........
 
      Electronic valence basis set:
      ------------------
      Associated Effective Charge   8.000000 au
      Associated Actual Charge      8.000000 au
      Nuclear Model: Point charge
 
      Shell  nPrim  nBasis  Cartesian Spherical Contaminant
         s       9       3        X                  
         p       4       2        X                  
         d       1       1                 X         
 
 
      Basis set label: C.CC-PVTZ.........
 
      Electronic valence basis set:
      ------------------
      Associated Effective Charge   6.000000 au
      Associated Actual Charge      6.000000 au
      Nuclear Model: Point charge
 
      Shell  nPrim  nBasis  Cartesian Spherical Contaminant
         s      10       4        X                  
         p       5       3        X                  
         d       2       2                 X         
         f       1       1                 X         
 
 
      Basis set label: C.CC-PVDZ.........
 
      Electronic valence basis set:
      ------------------
      Associated Effective Charge   6.000000 au
      Associated Actual Charge      6.000000 au
      Nuclear Model: Point charge
 
      Shell  nPrim  nBasis  Cartesian Spherical Contaminant
         s       9       3        X                  
         p       4       2        X                  
         d       1       1                 X         
 
 
      Basis set label: F.CC-PVDZ.........
 
      Electronic valence basis set:
      ------------------
      Associated Effective Charge   9.000000 au
      Associated Actual Charge      9.000000 au
      Nuclear Model: Point charge
 
      Shell  nPrim  nBasis  Cartesian Spherical Contaminant
         s       9       3        X                  
         p       4       2        X                  
         d       1       1                 X         
 
 
      Basis set label: H.CC-PVDZ.........
 
      Electronic valence basis set:
      ------------------
      Associated Effective Charge   1.000000 au
      Associated Actual Charge      1.000000 au
      Nuclear Model: Point charge
 
      Shell  nPrim  nBasis  Cartesian Spherical Contaminant
         s       4       2        X                  
         p       1       1        X                  
--
 
 
++    Molecular structure info:
      -------------------------
 
                    ************************************************ 
                    **** Cartesian Coordinates / Bohr, Angstrom **** 
                    ************************************************ 
 
     Center  Label                x              y              z                     x              y              z
        1      O1               2.104567       0.462413       0.000000              1.113689       0.244698       0.000000
        2      O2               0.263013      -3.408499       0.000000              0.139180      -1.803700       0.000000
        3      C2              -2.331575       0.360761       0.000000             -1.233816       0.190906       0.000000
        4      C3               0.170194      -1.138945       0.000000              0.090063      -0.602704       0.000000
        5      C4               4.578109      -0.727143       0.000000              2.422631      -0.384787       0.000000
        6      C5               6.513834       1.372266       0.000000              3.446973       0.726172       0.000000
        7      F6              -4.289958      -1.199742       0.000000             -2.270148      -0.634876       0.000000
        8      F7              -2.479941       1.833897      -2.045371             -1.312328       0.970456      -1.082364
        9      F8              -2.479941       1.833897       2.045371             -1.312328       0.970456       1.082364
       10      H9               4.716846      -1.926174      -1.670760              2.496047      -1.019287      -0.884128
       11      H10              4.716846      -1.926174       1.670760              2.496047      -1.019287       0.884128
       12      H11              6.307657       2.555071      -1.674540              3.337869       1.352085      -0.886129
       13      H12              6.307657       2.555071       1.674540              3.337869       1.352085       0.886129
       14      H13              8.408887       0.558079       0.000000              4.449792       0.295323       0.000000
 
                    *************************************** 
                    *    InterNuclear Distances / Bohr    * 
                    *************************************** 
 
               1 O1            2 O2            3 C2            4 C3            5 C4            6 C5    
    1 O1       0.000000
    2 O2       4.286639        0.000000
    3 C2       4.437306        4.575937        0.000000
    4 C3       2.511204        2.271450        2.916841        0.000000
    5 C4       2.744714        5.080327        6.994803        4.427110        0.000000
    6 C5       4.502163        7.869465        8.903056        6.822607        2.855617        0.000000
    7 F6       6.607019        5.060449        2.504083        4.460566        8.880651       11.105726
    8 F7       5.204058        6.260196        2.525012        4.477114        7.781937        9.234969
    9 F8       5.204058        6.260196        2.525012        4.477114        7.781937        9.234969
   10 H9       3.914178        4.982505        7.596166        4.907465        2.061156        4.110999
   11 H10      3.914178        4.982505        7.596166        4.907465        2.061156        4.110999
   12 H11      4.984905        8.654824        9.069477        7.356514        4.070424        2.060491
   13 H12      4.984905        8.654824        9.069477        7.356514        4.070424        2.060491
   14 H13      6.305047        9.060299       10.742275        8.411657        4.040626        2.062553
 
               7 F6            8 F7            9 F8           10 H9           11 H10          12 H11   
    7 F6       0.000000
    8 F7       4.081993        0.000000
    9 F8       4.081993        4.090743        0.000000
   10 H9       9.189214        8.128482        8.929810        0.000000
   11 H10      9.189214        8.929810        8.128482        3.341520        0.000000
   12 H11     11.367153        8.824936        9.569730        4.755234        5.814058        0.000000
   13 H12     11.367153        9.569730        8.824936        5.814058        4.755234        3.349081
   14 H13     12.819930       11.152482       11.152482        4.753327        4.753327        3.347720
 
              13 H12          14 H13   
   13 H12      0.000000
   14 H13      3.347720        0.000000
 
                    ******************************************* 
                    *    InterNuclear Distances / Angstrom    * 
                    ******************************************* 
 
               1 O1            2 O2            3 C2            4 C3            5 C4            6 C5    
    1 O1       0.000000
    2 O2       2.268392        0.000000
    3 C2       2.348121        2.421482        0.000000
    4 C3       1.328872        1.202000        1.543526        0.000000
    5 C4       1.452440        2.688393        3.701490        2.342725        0.000000
    6 C5       2.382442        4.164342        4.711294        3.610368        1.511128        0.000000
    7 F6       3.496284        2.677874        1.325104        2.360430        4.699438        5.876897
    8 F7       2.753869        3.312753        1.336179        2.369187        4.118024        4.886935
    9 F8       2.753869        3.312753        1.336179        2.369187        4.118024        4.886935
   10 H9       2.071294        2.636628        4.019718        2.596919        1.090717        2.175447
   11 H10      2.071294        2.636628        4.019718        2.596919        1.090717        2.175447
   12 H11      2.637898        4.579935        4.799361        3.892900        2.153975        1.090365
   13 H12      2.637898        4.579935        4.799361        3.892900        2.153975        1.090365
   14 H13      3.336487        4.794504        5.684567        4.451257        2.138207        1.091456
 
               7 F6            8 F7            9 F8           10 H9           11 H10          12 H11   
    7 F6       0.000000
    8 F7       2.160098        0.000000
    9 F8       2.160098        2.164728        0.000000
   10 H9       4.862723        4.301407        4.725452        0.000000
   11 H10      4.862723        4.725452        4.301407        1.768256        0.000000
   12 H11      6.015238        4.669955        5.064083        2.516361        3.076667        0.000000
   13 H12      6.015238        5.064083        4.669955        3.076667        2.516361        1.772257
   14 H13      6.784015        5.901639        5.901639        2.515353        2.515353        1.771537
 
              13 H12          14 H13   
   13 H12      0.000000
   14 H13      1.771537        0.000000
 
                    ************************************** 
                    *    Valence Bond Angles / Degree    * 
                    ************************************** 
                          Atom centers                 Phi
                      4 C3       1 O1       5 C4       114.70
                      4 C3       3 C2       7 F6       110.51
                      4 C3       3 C2       8 F7       110.51
                      4 C3       3 C2       9 F8       110.51
                      7 F6       3 C2       8 F7       108.52
                      7 F6       3 C2       9 F8       108.52
                      8 F7       3 C2       9 F8       108.20
                      1 O1       4 C3       2 O2       127.28
                      1 O1       4 C3       3 C2       109.44
                      2 O2       4 C3       3 C2       123.28
                      1 O1       5 C4       6 C5       106.99
                      1 O1       5 C4      10 H9       108.23
                      1 O1       5 C4      11 H10      108.23
                      6 C5       5 C4      10 H9       112.46
                      6 C5       5 C4      11 H10      112.46
                     10 H9       5 C4      11 H10      108.31
                      5 C4       6 C5      12 H11      110.74
                      5 C4       6 C5      13 H12      110.74
                      5 C4       6 C5      14 H13      109.43
                     12 H11      6 C5      13 H12      108.72
                     12 H11      6 C5      14 H13      108.57
                     13 H12      6 C5      14 H13      108.57
 
           ***************************************************************
           *              Valence Dihedral Angles / Degree               *
           ***************************************************************
                    Atom centers                       Phi1     Phi2     Theta 
           4 C3       1 O1       5 C4       6 C5        114.70   106.99  -180.00
           4 C3       1 O1       5 C4      10 H9        114.70   108.23    58.58
           4 C3       1 O1       5 C4      11 H10       114.70   108.23   -58.58
           2 O2       4 C3       1 O1       5 C4        127.28   114.70     0.00
           3 C2       4 C3       1 O1       5 C4        109.44   114.70  -180.00
           1 O1       4 C3       3 C2       7 F6        109.44   110.51  -180.00
           1 O1       4 C3       3 C2       8 F7        109.44   110.51    59.87
           1 O1       4 C3       3 C2       9 F8        109.44   110.51   -59.87
           2 O2       4 C3       3 C2       7 F6        123.28   110.51     0.00
           2 O2       4 C3       3 C2       8 F7        123.28   110.51  -120.13
           2 O2       4 C3       3 C2       9 F8        123.28   110.51   120.13
           1 O1       5 C4       6 C5      12 H11       106.99   110.74   -60.35
           1 O1       5 C4       6 C5      13 H12       106.99   110.74    60.35
           1 O1       5 C4       6 C5      14 H13       106.99   109.43  -180.00
          10 H9       5 C4       6 C5      12 H11       112.46   110.74    58.36
          10 H9       5 C4       6 C5      13 H12       112.46   110.74   179.05
          10 H9       5 C4       6 C5      14 H13       112.46   109.43   -61.30
          11 H10      5 C4       6 C5      12 H11       112.46   110.74  -179.05
          11 H10      5 C4       6 C5      13 H12       112.46   110.74   -58.36
          11 H10      5 C4       6 C5      14 H13       112.46   109.43    61.30
--
 
 
            Nuclear Potential Energy            501.15257079 au
 
 
      Basis set specifications :
      Symmetry species         a  
      Basis functions          167
 
 
  Input file to MOLDEN was generated!
 
--- Stop Module: seward at Tue Apr 19 10:54:38 2022 /rc=_RC_ALL_IS_WELL_ ---
*** files: cf3_ground_opt.GssOrb cf3_ground_opt.guessorb.h5 cf3_ground_opt.guessorb.molden xmldump
    saved to directory /home/oxygen16/FOUDAAE/ESCA_Molecule/auger/electronic_structure/CF3/new/ground_opt
--- Module seward spent 12 seconds ---

*** symbolic link created: INPORB -> cf3_ground_opt.GssOrb
--- Start Module: scf at Tue Apr 19 10:54:38 2022 ---
 
()()()()()()()()()()()()()()()()()()()()()()()()()()()()()()()()()()()()()()()()()()()()()()()()()()

                                                &SCF

                       only a single process is used, running in SERIAL mode
                       available to each process: 10 GB of memory, 20 threads
                                            pid: 277293
()()()()()()()()()()()()()()()()()()()()()()()()()()()()()()()()()()()()()()()()()()()()()()()()()()
 
++    Input section:
      --------------
 
      Header of the integral files:
      
       Integrals generated by Gateway/Seward, Tue Apr 19 10:54:28 2022
 
 
      Cartesian coordinates in Angstrom:
      -----------------------------------------------------
      No.  Label        X            Y            Z        
      -----------------------------------------------------
       1   O1         1.11368866   0.24469850   0.00000000
       2   O2         0.13918044  -1.80369974   0.00000000
       3   C2        -1.23381630   0.19090638   0.00000000
       4   C3         0.09006257  -0.60270393   0.00000000
       5   C4         2.42263091  -0.38478735   0.00000000
       6   C5         3.44697273   0.72617193   0.00000000
       7   F6        -2.27014795  -0.63487634   0.00000000
       8   F7        -1.31232848   0.97045645  -1.08236387
       9   F8        -1.31232848   0.97045645   1.08236387
      10   H9         2.49604740  -1.01928721  -0.88412816
      11   H10        2.49604740  -1.01928721   0.88412816
      12   H11        3.33786850   1.35208534  -0.88612854
      13   H12        3.33786850   1.35208534   0.88612854
      14   H13        4.44979154   0.29532288   0.00000000
      -----------------------------------------------------
      Nuclear repulsion energy =  501.15257079
--
 
++    Orbital specifications:
      -----------------------
 
      Symmetry species               1
                                     a
      Frozen orbitals                0
      Occupied orbitals             36
      Secondary orbitals           131
      Deleted orbitals               0
      Total number of orbitals     167
      Number of basis functions    167
--
 
      Molecular charge                           0.000
 
++    Optimization specifications:
      ----------------------------
 
      SCF Algorithm: LK-RI/DF
      The actual AO density is used
      Number of density matrices in core                5
      Maximum number of NDDO SCF iterations           400
      Maximum number of HF SCF iterations             400
      Threshold for SCF energy change            0.10E-08
      Threshold for density matrix               0.10E-03
      Threshold for Fock matrix                  0.15E-03
      Threshold for linear dependence            0.10E-08
      Threshold at which DIIS is turned on       0.15E+00
      Threshold at which QNR/C2DIIS is turned on 0.75E-01
      Threshold for Norm(delta) (QNR/C2DIIS)     0.20E-04
      DIIS extrapolation of the SCF procedure
      All orbitals punched on: SCFORB
--
 
      Input vectors read from INPORB
      Orbital file label: *Guess orbitals
 
 
++ Convergence information
                                   SCF        iterations: Energy and convergence statistics
 
Iter     Tot. SCF        One-elec.       Two-elec.     Energy      Max Dij or  Max Fij      DNorm      TNorm      AccCon     Time
         Energy          Energy          Energy        Change      Delta Norm                                                in Sec.
   1  -601.308480731 -1819.861449026   717.400397507   0.00E+00    0.36E+00*   0.14E+00*    0.12E+02   0.30E+03   None        27.
   2  -602.170952109 -1830.694182024   727.370659126  -0.86E+00*   0.34E+00*   0.12E+00*    0.14E+02   0.31E+03   EDIIS       27.
   3  -602.351128245 -1828.482839965   724.979140932  -0.18E+00*   0.11E+00*   0.69E-01*    0.14E+02   0.31E+03   EDIIS       27.
   4  -602.492458591 -1828.216287316   724.571257936  -0.14E+00*   0.85E-01*   0.32E-01*    0.14E+02   0.31E+03   EDIIS       26.
   5  -602.498056607 -1828.621024010   724.970396615  -0.56E-02*   0.15E-01*   0.14E-01*    0.14E+02   0.31E+03   EDIIS       31.
   6  -602.507129706 -1828.508067504   724.848367010  -0.91E-02*   0.18E-02*   0.20E-02*    0.14E+02   0.31E+03   c2DIIS      28.
   7  -602.507375635 -1828.480566671   724.820620248  -0.25E-03*   0.24E-02*   0.72E-03*    0.14E+02   0.31E+03   QNRc2DIIS   27.
   8  -602.507383642 -1828.510243116   724.850288686  -0.80E-05*   0.94E-03*   0.31E-03*    0.14E+02   0.31E+03   QNRc2DIIS   30.
   9  -602.507387678 -1828.501221416   724.841262950  -0.40E-05*   0.45E-03*   0.59E-04     0.14E+02   0.31E+03   QNRc2DIIS   28.
  10  -602.507388008 -1828.499074921   724.839116125  -0.33E-06*   0.98E-04*   0.35E-04     0.14E+02   0.31E+03   QNRc2DIIS   28.
  11  -602.507387987 -1828.499995698   724.840036922   0.21E-07*   0.45E-04*   0.12E-04     0.14E+02   0.31E+03   QNRc2DIIS   28.
  12  -602.507388006 -1828.500126988   724.840168194  -0.18E-07*   0.90E-05    0.21E-05     0.14E+02   0.31E+03   QNRc2DIIS   28.
  13  -602.507388003 -1828.500072399   724.840113607   0.22E-08*   0.35E-05    0.91E-06     0.14E+02   0.31E+03   QNRc2DIIS   29.
  14  -602.507387998 -1828.500073760   724.840114974   0.57E-08*   0.29E-05    0.45E-06     0.14E+02   0.31E+03   QNRc2DIIS   27.
  15  -602.507387998 -1828.500071533   724.840112747  -0.46E-09    0.45E-06    0.12E-06     0.14E+02   0.31E+03   QNRc2DIIS   29.
 
       Convergence after 15 Macro Iterations
--
 
 *****************************************************************************************************************************
 *                                                                                                                           *
 *                                             SCF/KS-DFT Program, Final results                                             *
 *                                                                                                                           *
 *                                                                                                                           *
 *                                                                                                                           *
 *                                                       Final Results                                                       *
 *                                                                                                                           *
 *****************************************************************************************************************************
 
::    Total SCF energy                               -602.5073879982
      One-electron energy                           -1828.5000715334
      Two-electron energy                             724.8401127469
      Nuclear repulsion energy                        501.1525707883
      Kinetic energy (interpolated)                   601.9778901624
      Virial theorem                                    1.0008795968
      Total spin, S(S+1)                                0.0000000000
      Total spin, S                                     0.0000000000
      Max non-diagonal density matrix element           0.0000003573
      Max non-diagonal Fock matrix element              0.0000000415
 
 
      All orbitals with orbital energies smaller than  E(LUMO)+0.5 are printed
 
++    Molecular orbitals:
      -------------------
 
      Title: SCF orbitals

      Molecular orbitals for symmetry species 1: a  
 
          Orbital            1         2         3         4         5         6         7         8         9        10    
          Energy          -26.3561  -26.3561  -26.3541  -20.6356  -20.5894  -11.5261  -11.4251  -11.3166  -11.2466   -1.7491
          Occ. No.          2.0000    2.0000    2.0000    2.0000    2.0000    2.0000    2.0000    2.0000    2.0000    2.0000
 
        1 O1     1s         0.0000    0.0000   -0.0000    1.0010    0.0004   -0.0000    0.0002    0.0002   -0.0000   -0.0005
        2 O1     2s         0.0000    0.0001   -0.0000    0.0045   -0.0002   -0.0001    0.0013    0.0010   -0.0001    0.0211
        3 O1     *s        -0.0000   -0.0001    0.0001   -0.0073    0.0005    0.0002   -0.0026   -0.0013   -0.0001   -0.0037
        4 O1     2px       -0.0000   -0.0001    0.0000   -0.0002    0.0001    0.0001   -0.0002    0.0004   -0.0001   -0.0055
        5 O1     *px        0.0000    0.0006   -0.0002    0.0003   -0.0009   -0.0000    0.0010   -0.0004    0.0004   -0.0011
        6 O1     2py        0.0000    0.0001   -0.0000   -0.0022    0.0001    0.0000   -0.0003   -0.0003   -0.0001   -0.0030
        7 O1     *py       -0.0000   -0.0003    0.0000    0.0029    0.0005   -0.0002    0.0014    0.0010    0.0003    0.0024
        8 O1     2pz       -0.0000    0.0000    0.0000   -0.0000    0.0000    0.0000   -0.0000   -0.0000   -0.0000   -0.0000
        9 O1     *pz        0.0000   -0.0000   -0.0000    0.0000   -0.0000   -0.0000   -0.0000   -0.0000    0.0000   -0.0000
       10 O1     *d2-      -0.0000   -0.0000    0.0000    0.0000   -0.0000   -0.0000   -0.0001    0.0002    0.0000    0.0003
       11 O1     *d1-      -0.0000    0.0000    0.0000   -0.0000   -0.0000   -0.0000   -0.0000    0.0000    0.0000    0.0000
       12 O1     *d0        0.0000    0.0000   -0.0000    0.0001    0.0000   -0.0000    0.0002    0.0002   -0.0000   -0.0003
       13 O1     *d1+       0.0000   -0.0000    0.0000    0.0000   -0.0000   -0.0000   -0.0000   -0.0000   -0.0000    0.0000
       14 O1     *d2+      -0.0000   -0.0000   -0.0000   -0.0000    0.0002   -0.0000   -0.0001   -0.0001    0.0000    0.0003
       15 O2     1s        -0.0000   -0.0000   -0.0000   -0.0005    1.0009   -0.0000   -0.0002    0.0000    0.0000   -0.0002
       16 O2     2s        -0.0000   -0.0001   -0.0001   -0.0002    0.0041   -0.0001    0.0008   -0.0000    0.0000    0.0179
       17 O2     *s         0.0000    0.0004    0.0004    0.0004   -0.0064    0.0002   -0.0017   -0.0001   -0.0001   -0.0063
       18 O2     2px        0.0000    0.0000   -0.0000   -0.0000   -0.0001    0.0000    0.0001    0.0000   -0.0000   -0.0026
       19 O2     *px       -0.0000   -0.0001   -0.0001   -0.0005    0.0002    0.0001   -0.0004   -0.0003    0.0000    0.0026
       20 O2     2py        0.0000    0.0000   -0.0000   -0.0000    0.0027   -0.0000    0.0006   -0.0000   -0.0000    0.0065
       21 O2     *py        0.0000    0.0001    0.0001   -0.0001   -0.0030    0.0001   -0.0012    0.0000   -0.0000   -0.0039
       22 O2     2pz       -0.0000    0.0000    0.0000    0.0000   -0.0000   -0.0000   -0.0000    0.0000   -0.0000   -0.0000
       23 O2     *pz        0.0000   -0.0000   -0.0000   -0.0000    0.0000   -0.0000    0.0000   -0.0000    0.0000   -0.0000
       24 O2     *d2-       0.0000    0.0000   -0.0000   -0.0002    0.0000    0.0000   -0.0000   -0.0000    0.0000   -0.0002
       25 O2     *d1-      -0.0000    0.0000   -0.0000   -0.0000   -0.0000   -0.0000    0.0000   -0.0000    0.0000   -0.0000
       26 O2     *d0        0.0000    0.0000    0.0000    0.0000   -0.0002   -0.0000   -0.0000   -0.0000   -0.0000   -0.0003
       27 O2     *d1+       0.0000   -0.0000   -0.0000    0.0000    0.0000   -0.0000    0.0000   -0.0000   -0.0000    0.0000
       28 O2     *d2+      -0.0000   -0.0000   -0.0000    0.0000   -0.0001   -0.0000   -0.0003   -0.0000    0.0000   -0.0002
       29 C2     1s        -0.0000   -0.0001   -0.0000   -0.0001   -0.0001    0.9996   -0.0032    0.0001    0.0000   -0.0053
       30 C2     2s        -0.0000   -0.0001    0.0001   -0.0004   -0.0002    0.0002   -0.0009    0.0003    0.0000    0.3887
       31 C2     *s         0.0000    0.0002    0.0002    0.0001    0.0001    0.0006    0.0005   -0.0000   -0.0000   -0.0158
       32 C2     *s         0.0000    0.0040    0.0027   -0.0004   -0.0001    0.0001    0.0037    0.0000   -0.0000   -0.1738
       33 C2     2px       -0.0000   -0.0001   -0.0005    0.0001   -0.0001   -0.0034    0.0009   -0.0001   -0.0000   -0.0777
       34 C2     *px        0.0000    0.0000    0.0000   -0.0005   -0.0000    0.0029   -0.0011    0.0003    0.0000   -0.0017
       35 C2     *px        0.0000    0.0009   -0.0003   -0.0006    0.0002    0.0018    0.0008   -0.0003   -0.0001    0.0095
       36 C2     2py        0.0000    0.0004   -0.0002    0.0000    0.0000    0.0022   -0.0005   -0.0001    0.0000    0.0409
       37 C2     *py        0.0000    0.0001   -0.0002    0.0001   -0.0000   -0.0019    0.0006    0.0002   -0.0000    0.0023
       38 C2     *py        0.0000    0.0004   -0.0012   -0.0005    0.0005   -0.0011   -0.0004   -0.0005   -0.0000   -0.0027
       39 C2     2pz        0.0005   -0.0000    0.0000   -0.0000   -0.0000   -0.0000   -0.0000   -0.0000    0.0000    0.0000
       40 C2     *pz        0.0004   -0.0000   -0.0000    0.0000    0.0000    0.0000    0.0000    0.0000   -0.0000   -0.0000
       41 C2     *pz        0.0014   -0.0000   -0.0000   -0.0000    0.0000    0.0000    0.0000    0.0000   -0.0000   -0.0000
       42 C2     *d2-       0.0000    0.0000   -0.0000    0.0000    0.0000    0.0000    0.0000    0.0000   -0.0000    0.0074
       43 C2     *d2-      -0.0000   -0.0001   -0.0001    0.0001    0.0005   -0.0004    0.0003   -0.0002    0.0001    0.0129
       44 C2     *d1-      -0.0000    0.0000   -0.0000   -0.0000    0.0000    0.0000    0.0000   -0.0000    0.0000    0.0000
       45 C2     *d1-       0.0001   -0.0000   -0.0000    0.0000   -0.0000    0.0000   -0.0000    0.0000   -0.0000   -0.0000
       46 C2     *d0        0.0000    0.0000    0.0000    0.0001    0.0001    0.0000   -0.0000   -0.0000    0.0000    0.0039
       47 C2     *d0       -0.0000   -0.0001   -0.0001   -0.0001   -0.0004   -0.0003    0.0005    0.0002   -0.0000    0.0089
       48 C2     *d1+      -0.0000    0.0000   -0.0000    0.0000   -0.0000   -0.0000   -0.0000   -0.0000    0.0000   -0.0000
       49 C2     *d1+       0.0000   -0.0000    0.0000   -0.0000    0.0000   -0.0000    0.0000    0.0000   -0.0000   -0.0000
       50 C2     *d2+      -0.0000   -0.0000    0.0000    0.0000   -0.0000   -0.0000   -0.0000    0.0001   -0.0000   -0.0035
       51 C2     *d2+       0.0000    0.0000    0.0000   -0.0003    0.0005    0.0003   -0.0004   -0.0002    0.0001   -0.0063
       52 C2     *f3-       0.0000    0.0000    0.0003    0.0001    0.0000   -0.0003    0.0000    0.0000   -0.0000   -0.0103
       53 C2     *f2-       0.0001   -0.0000    0.0000    0.0000   -0.0000    0.0000   -0.0000    0.0000    0.0000    0.0000
       54 C2     *f1-      -0.0000   -0.0005   -0.0001   -0.0000   -0.0001    0.0003    0.0001   -0.0000   -0.0000    0.0184
       55 C2     *f0       -0.0001    0.0000    0.0000    0.0000   -0.0000    0.0000   -0.0000    0.0000   -0.0000   -0.0000
       56 C2     *f1+       0.0000    0.0001   -0.0003    0.0000   -0.0000   -0.0000    0.0001    0.0000    0.0000    0.0026
       57 C2     *f2+       0.0004   -0.0000    0.0000   -0.0000    0.0000   -0.0000    0.0000   -0.0000    0.0000    0.0000
       58 C2     *f3+      -0.0000   -0.0000   -0.0002   -0.0000    0.0002    0.0001   -0.0001   -0.0000    0.0000    0.0040
       59 C3     1s         0.0000    0.0001    0.0001    0.0002    0.0002    0.0028    1.0013   -0.0000    0.0000   -0.0024
       60 C3     2s         0.0000    0.0003    0.0003    0.0006    0.0004    0.0004    0.0076   -0.0002    0.0001    0.0462
       61 C3     *s        -0.0000   -0.0019   -0.0018    0.0023    0.0020   -0.0018   -0.0055    0.0012    0.0004    0.0201
       62 C3     2px        0.0000    0.0000   -0.0000    0.0003   -0.0001   -0.0002    0.0006   -0.0000    0.0001   -0.0188
       63 C3     *px        0.0000    0.0009    0.0010    0.0012   -0.0005    0.0005    0.0016    0.0018    0.0002   -0.0138
       64 C3     2py        0.0000    0.0000    0.0000    0.0002    0.0001    0.0001    0.0007    0.0001    0.0001    0.0111
       65 C3     *py       -0.0000   -0.0002    0.0001    0.0017   -0.0033   -0.0003   -0.0014    0.0002   -0.0001    0.0033
       66 C3     2pz       -0.0000    0.0000   -0.0000   -0.0000    0.0000   -0.0000   -0.0000    0.0000   -0.0000   -0.0000
       67 C3     *pz       -0.0005    0.0000    0.0000    0.0000   -0.0000    0.0000    0.0000   -0.0000   -0.0000    0.0000
       68 C3     *d2-       0.0000    0.0001   -0.0001   -0.0004    0.0001    0.0001    0.0001    0.0000    0.0001   -0.0011
       69 C3     *d1-      -0.0001    0.0000   -0.0000   -0.0000   -0.0000   -0.0000   -0.0000    0.0000    0.0000    0.0000
       70 C3     *d0        0.0000    0.0000    0.0001   -0.0001    0.0003    0.0001   -0.0010   -0.0002   -0.0000   -0.0027
       71 C3     *d1+       0.0001   -0.0000    0.0000   -0.0000    0.0000   -0.0000    0.0000   -0.0000    0.0000   -0.0000
       72 C3     *d2+       0.0000    0.0000   -0.0001    0.0001    0.0008   -0.0000   -0.0004    0.0002    0.0000    0.0001
       73 C4     1s         0.0000    0.0000    0.0000   -0.0000   -0.0000   -0.0000   -0.0001    1.0016   -0.0047   -0.0004
       74 C4     2s         0.0000    0.0001    0.0001   -0.0000   -0.0001   -0.0000   -0.0001    0.0088   -0.0001    0.0014
       75 C4     *s        -0.0000   -0.0005   -0.0001    0.0023    0.0009    0.0000    0.0006   -0.0108    0.0023    0.0026
       76 C4     2px        0.0000    0.0001   -0.0000   -0.0005   -0.0001    0.0000   -0.0001   -0.0015    0.0001   -0.0019
       77 C4     *px        0.0000    0.0003    0.0001   -0.0004   -0.0003    0.0001   -0.0002    0.0009    0.0009   -0.0048
       78 C4     2py       -0.0000   -0.0001    0.0000    0.0002    0.0001   -0.0000    0.0001    0.0004    0.0001    0.0010
       79 C4     *py       -0.0000   -0.0000    0.0001    0.0002   -0.0000    0.0000    0.0002   -0.0004    0.0008   -0.0023
       80 C4     2pz       -0.0000    0.0000   -0.0000   -0.0000    0.0000   -0.0000   -0.0000   -0.0000   -0.0000    0.0000
       81 C4     *pz        0.0000   -0.0000    0.0000   -0.0000    0.0000    0.0000    0.0000    0.0000   -0.0000    0.0000
       82 C4     *d2-       0.0000    0.0000   -0.0000    0.0001   -0.0001   -0.0000    0.0000   -0.0000   -0.0002   -0.0004
       83 C4     *d1-      -0.0000    0.0000    0.0000    0.0000   -0.0000    0.0000   -0.0000   -0.0000    0.0000   -0.0000
       84 C4     *d0        0.0000    0.0000    0.0000    0.0001    0.0000    0.0000   -0.0001    0.0002    0.0002   -0.0005
       85 C4     *d1+       0.0000   -0.0000    0.0000    0.0000    0.0000   -0.0000   -0.0000   -0.0000    0.0000    0.0000
       86 C4     *d2+      -0.0000   -0.0001   -0.0000    0.0001    0.0000   -0.0000    0.0002   -0.0001    0.0000    0.0007
       87 C5     1s        -0.0000   -0.0000    0.0000    0.0000   -0.0000   -0.0000    0.0001    0.0045    1.0018   -0.0001
       88 C5     2s        -0.0000   -0.0000    0.0000    0.0001   -0.0000   -0.0000    0.0004   -0.0001    0.0101   -0.0001
       89 C5     *s         0.0000    0.0000   -0.0001   -0.0007   -0.0001   -0.0000   -0.0007    0.0017   -0.0125    0.0027
       90 C5     2px       -0.0000   -0.0000    0.0000    0.0001    0.0000    0.0000   -0.0001   -0.0001    0.0001   -0.0003
       91 C5     *px       -0.0000   -0.0000   -0.0000    0.0003   -0.0000   -0.0000    0.0008   -0.0007    0.0007   -0.0003
       92 C5     2py       -0.0000   -0.0000   -0.0000    0.0001    0.0000    0.0000    0.0000   -0.0001   -0.0000   -0.0001
       93 C5     *py        0.0000    0.0001    0.0000    0.0000   -0.0001    0.0000   -0.0001   -0.0005    0.0007   -0.0016
       94 C5     2pz        0.0000   -0.0000   -0.0000   -0.0000    0.0000   -0.0000    0.0000    0.0000   -0.0000    0.0000
       95 C5     *pz       -0.0000    0.0000   -0.0000    0.0000   -0.0000   -0.0000   -0.0000   -0.0000    0.0000    0.0000
       96 C5     *d2-       0.0000    0.0000    0.0000   -0.0001    0.0000   -0.0000   -0.0000   -0.0001   -0.0002    0.0001
       97 C5     *d1-      -0.0000    0.0000   -0.0000    0.0000    0.0000   -0.0000    0.0000   -0.0000   -0.0000    0.0000
       98 C5     *d0        0.0000    0.0000   -0.0000   -0.0000   -0.0000    0.0000    0.0000    0.0000    0.0001   -0.0001
       99 C5     *d1+       0.0000   -0.0000    0.0000   -0.0000    0.0000    0.0000    0.0000   -0.0000    0.0000   -0.0000
      100 C5     *d2+      -0.0000   -0.0000    0.0000    0.0000    0.0000   -0.0000    0.0000   -0.0000    0.0000    0.0000
      101 F6     1s        -0.0000   -0.0062    1.0006    0.0000    0.0000   -0.0000    0.0000    0.0000    0.0000   -0.0027
      102 F6     2s         0.0000    0.0002    0.0026    0.0001    0.0000    0.0004    0.0001    0.0000    0.0000    0.4998
      103 F6     *s        -0.0000   -0.0005   -0.0038   -0.0002   -0.0003    0.0003   -0.0004    0.0001   -0.0001   -0.0293
      104 F6     2px        0.0000    0.0000    0.0014   -0.0000   -0.0000    0.0005   -0.0000   -0.0000   -0.0000    0.0599
      105 F6     *px       -0.0000   -0.0000   -0.0015    0.0001   -0.0002    0.0001   -0.0001    0.0002    0.0000   -0.0156
      106 F6     2py       -0.0000   -0.0000    0.0011    0.0000   -0.0000    0.0004   -0.0000    0.0000   -0.0000    0.0567
      107 F6     *py       -0.0000   -0.0002   -0.0012   -0.0000   -0.0001    0.0002   -0.0000    0.0001   -0.0000   -0.0143
      108 F6     2pz        0.0000   -0.0000    0.0000    0.0000    0.0000    0.0000    0.0000    0.0000    0.0000    0.0000
      109 F6     *pz       -0.0004    0.0000   -0.0000    0.0000   -0.0000   -0.0000    0.0000   -0.0000   -0.0000   -0.0000
      110 F6     *d2-       0.0000    0.0000   -0.0001    0.0000   -0.0000   -0.0000   -0.0000    0.0000   -0.0000    0.0042
      111 F6     *d1-      -0.0001    0.0000    0.0000   -0.0000   -0.0000    0.0000    0.0000    0.0000   -0.0000    0.0000
      112 F6     *d0       -0.0000   -0.0000    0.0000   -0.0000    0.0000    0.0000   -0.0000   -0.0000   -0.0000   -0.0023
      113 F6     *d1+      -0.0000    0.0000    0.0000    0.0000   -0.0000    0.0000    0.0000    0.0000   -0.0000   -0.0000
      114 F6     *d2+       0.0000    0.0001   -0.0000   -0.0000   -0.0000   -0.0000    0.0000   -0.0000    0.0000    0.0001
      115 F7     1s        -0.7075    0.7076    0.0045    0.0000   -0.0000   -0.0000    0.0000   -0.0000   -0.0000   -0.0027
      116 F7     2s        -0.0017    0.0020    0.0002    0.0000   -0.0001    0.0004    0.0001   -0.0001   -0.0000    0.4890
      117 F7     *s         0.0025   -0.0031   -0.0003    0.0001    0.0004    0.0003   -0.0006    0.0001    0.0001   -0.0272
      118 F7     2px       -0.0001    0.0001    0.0000    0.0000   -0.0000    0.0001   -0.0000   -0.0000   -0.0000   -0.0011
      119 F7     *px        0.0001   -0.0002    0.0002   -0.0001    0.0001   -0.0001    0.0000    0.0001    0.0000    0.0007
      120 F7     2py        0.0007   -0.0007   -0.0000   -0.0000    0.0000   -0.0004    0.0001   -0.0000   -0.0000   -0.0444
      121 F7     *py       -0.0010    0.0007    0.0002    0.0001   -0.0002   -0.0001    0.0001    0.0001   -0.0000    0.0110
      122 F7     2pz       -0.0009    0.0010    0.0000   -0.0000    0.0000    0.0005   -0.0001   -0.0000    0.0000    0.0659
      123 F7     *pz        0.0010   -0.0013    0.0000   -0.0000    0.0001    0.0002   -0.0001    0.0000    0.0000   -0.0167
      124 F7     *d2-      -0.0000    0.0000   -0.0000    0.0000   -0.0000    0.0000   -0.0000    0.0000   -0.0000    0.0002
      125 F7     *d1-      -0.0001    0.0000   -0.0000    0.0000   -0.0000    0.0000    0.0000    0.0000   -0.0000   -0.0035
      126 F7     *d0        0.0000   -0.0001    0.0000   -0.0000    0.0000    0.0000   -0.0000   -0.0000    0.0000    0.0025
      127 F7     *d1+       0.0000   -0.0000    0.0000   -0.0000    0.0000   -0.0000   -0.0000    0.0000   -0.0000   -0.0003
      128 F7     *d2+      -0.0000   -0.0000    0.0000   -0.0000   -0.0000    0.0000    0.0000    0.0000   -0.0000   -0.0012
      129 F8     1s         0.7075    0.7075    0.0045    0.0000   -0.0000   -0.0000    0.0000   -0.0000   -0.0000   -0.0027
      130 F8     2s         0.0017    0.0020    0.0002    0.0000   -0.0001    0.0004    0.0001   -0.0001   -0.0000    0.4890
      131 F8     *s        -0.0025   -0.0031   -0.0003    0.0001    0.0004    0.0003   -0.0006    0.0001    0.0001   -0.0272
      132 F8     2px        0.0001    0.0001    0.0000    0.0000   -0.0000    0.0001   -0.0000   -0.0000   -0.0000   -0.0011
      133 F8     *px       -0.0001   -0.0002    0.0002   -0.0001    0.0001   -0.0001    0.0000    0.0001    0.0000    0.0007
      134 F8     2py       -0.0007   -0.0007   -0.0000   -0.0000    0.0000   -0.0004    0.0001   -0.0000   -0.0000   -0.0444
      135 F8     *py        0.0010    0.0007    0.0002    0.0001   -0.0002   -0.0001    0.0001    0.0001   -0.0000    0.0110
      136 F8     2pz       -0.0009   -0.0010   -0.0000    0.0000   -0.0000   -0.0005    0.0001    0.0000   -0.0000   -0.0659
      137 F8     *pz        0.0010    0.0013   -0.0000    0.0000   -0.0001   -0.0002    0.0001   -0.0000   -0.0000    0.0167
      138 F8     *d2-       0.0000    0.0000   -0.0000    0.0000   -0.0000    0.0000   -0.0000    0.0000   -0.0000    0.0002
      139 F8     *d1-      -0.0001   -0.0000    0.0000   -0.0000    0.0000   -0.0000   -0.0000   -0.0000    0.0000    0.0035
      140 F8     *d0       -0.0000   -0.0001    0.0000   -0.0000    0.0000    0.0000   -0.0000   -0.0000    0.0000    0.0025
      141 F8     *d1+       0.0000    0.0000   -0.0000    0.0000   -0.0000    0.0000    0.0000   -0.0000    0.0000    0.0003
      142 F8     *d2+       0.0000   -0.0000    0.0000   -0.0000   -0.0000    0.0000    0.0000    0.0000   -0.0000   -0.0012
      143 H9     1s         0.0000    0.0001    0.0000   -0.0005   -0.0002    0.0000   -0.0001    0.0005   -0.0002   -0.0001
      144 H9     *s        -0.0001   -0.0000   -0.0000    0.0000   -0.0001   -0.0000    0.0001    0.0010    0.0002    0.0001
      145 H9     *px        0.0000   -0.0000    0.0000    0.0001    0.0001    0.0000    0.0000    0.0001    0.0000    0.0001
      146 H9     *py       -0.0000   -0.0000   -0.0000   -0.0001   -0.0000   -0.0000    0.0000   -0.0001    0.0000    0.0002
      147 H9     *pz       -0.0000   -0.0000    0.0000   -0.0000   -0.0000   -0.0000    0.0000   -0.0002    0.0000    0.0001
      148 H10    1s        -0.0000    0.0001    0.0000   -0.0005   -0.0002    0.0000   -0.0001    0.0005   -0.0002   -0.0001
      149 H10    *s         0.0001   -0.0000   -0.0000    0.0000   -0.0001   -0.0000    0.0001    0.0010    0.0002    0.0001
      150 H10    *px       -0.0000   -0.0000    0.0000    0.0001    0.0001    0.0000    0.0000    0.0001    0.0000    0.0001
      151 H10    *py        0.0000   -0.0000   -0.0000   -0.0001   -0.0000   -0.0000    0.0000   -0.0001    0.0000    0.0002
      152 H10    *pz       -0.0000    0.0000   -0.0000    0.0000    0.0000    0.0000   -0.0000    0.0002   -0.0000   -0.0001
      153 H11    1s        -0.0000   -0.0000   -0.0000    0.0001    0.0000   -0.0000    0.0002   -0.0002    0.0002    0.0000
      154 H11    *s         0.0000   -0.0000   -0.0000   -0.0001    0.0000   -0.0000   -0.0000    0.0003    0.0012    0.0003
      155 H11    *px       -0.0000   -0.0000    0.0000    0.0000    0.0000    0.0000   -0.0001   -0.0000   -0.0001    0.0000
      156 H11    *py        0.0000   -0.0000   -0.0000    0.0000    0.0000   -0.0000    0.0000   -0.0001    0.0002    0.0001
      157 H11    *pz        0.0000   -0.0000   -0.0000    0.0000    0.0000   -0.0000    0.0000    0.0000   -0.0003    0.0001
      158 H12    1s         0.0000   -0.0000   -0.0000    0.0001    0.0000   -0.0000    0.0002   -0.0002    0.0002    0.0000
      159 H12    *s        -0.0000   -0.0000   -0.0000   -0.0001    0.0000   -0.0000   -0.0000    0.0003    0.0012    0.0003
      160 H12    *px        0.0000   -0.0000    0.0000    0.0000    0.0000    0.0000   -0.0001   -0.0000   -0.0001    0.0000
      161 H12    *py       -0.0000   -0.0000   -0.0000    0.0000    0.0000   -0.0000    0.0000   -0.0001    0.0002    0.0001
      162 H12    *pz        0.0000    0.0000    0.0000   -0.0000   -0.0000    0.0000   -0.0000   -0.0000    0.0003   -0.0001
      163 H13    1s         0.0000    0.0000    0.0000   -0.0001   -0.0000    0.0000   -0.0001   -0.0001    0.0001   -0.0003
      164 H13    *s        -0.0000   -0.0000    0.0000    0.0001    0.0001    0.0000   -0.0002    0.0001    0.0011    0.0002
      165 H13    *px        0.0000    0.0000    0.0000   -0.0000   -0.0000   -0.0000   -0.0000   -0.0000    0.0004   -0.0001
      166 H13    *py        0.0000    0.0000    0.0000   -0.0000   -0.0000    0.0000   -0.0000   -0.0000   -0.0002   -0.0001
      167 H13    *pz        0.0000   -0.0000    0.0000   -0.0000    0.0000    0.0000    0.0000    0.0000   -0.0000    0.0000
 
          Orbital           11        12        13        14        15        16        17        18        19        20    
          Energy           -1.6519   -1.6514   -1.4978   -1.4000   -1.0779   -1.0169   -0.9123   -0.8578   -0.8380   -0.8352
          Occ. No.          2.0000    2.0000    2.0000    2.0000    2.0000    2.0000    2.0000    2.0000    2.0000    2.0000
 
        1 O1     1s        -0.0009    0.0000   -0.0109   -0.0069   -0.0009    0.0005    0.0014   -0.0016   -0.0000   -0.0016
        2 O1     2s         0.0130   -0.0000    0.6338    0.5149   -0.0502   -0.1545   -0.0501   -0.1422   -0.0000   -0.1048
        3 O1     *s         0.0027   -0.0000   -0.0110   -0.0073    0.0118   -0.0106   -0.0236   -0.0032    0.0000   -0.0050
        4 O1     2px       -0.0027    0.0000   -0.0378    0.0055    0.2714   -0.0050   -0.2716    0.1460   -0.0000   -0.0134
        5 O1     *px       -0.0067    0.0000    0.0140   -0.0011   -0.0307   -0.0007    0.0223   -0.0020   -0.0000   -0.0146
        6 O1     2py       -0.0015    0.0000   -0.1102   -0.0426    0.0082    0.0283    0.0179   -0.0630   -0.0000   -0.0490
        7 O1     *py        0.0011   -0.0000    0.0061    0.0068   -0.0115   -0.0093    0.0064   -0.0119    0.0000    0.0051
        8 O1     2pz        0.0000    0.0022   -0.0000    0.0000   -0.0000   -0.0000   -0.0000   -0.0000   -0.0452    0.0000
        9 O1     *pz       -0.0000   -0.0004   -0.0000   -0.0000    0.0000    0.0000   -0.0000    0.0000    0.0055   -0.0000
       10 O1     *d2-       0.0003   -0.0000    0.0052   -0.0013   -0.0132   -0.0008    0.0123   -0.0087    0.0000   -0.0012
       11 O1     *d1-      -0.0000   -0.0001   -0.0000   -0.0000    0.0000    0.0000    0.0000    0.0000    0.0016   -0.0000
       12 O1     *d0       -0.0004    0.0000   -0.0084   -0.0042   -0.0010   -0.0006    0.0006   -0.0023   -0.0000   -0.0019
       13 O1     *d1+      -0.0000   -0.0003    0.0000   -0.0000   -0.0000    0.0000    0.0000    0.0000    0.0013   -0.0000
       14 O1     *d2+       0.0003   -0.0000    0.0012    0.0056    0.0012    0.0042    0.0014    0.0013   -0.0000    0.0002
       15 O2     1s         0.0003   -0.0000   -0.0067    0.0104   -0.0015    0.0006    0.0004    0.0000    0.0000   -0.0005
       16 O2     2s        -0.0124    0.0000    0.4265   -0.6716    0.1343   -0.1076   -0.0982   -0.1224    0.0000    0.0087
       17 O2     *s         0.0004    0.0000   -0.0421    0.0563    0.0053   -0.0084   -0.0162   -0.0092   -0.0000    0.0080
       18 O2     2px        0.0030   -0.0000    0.0099    0.0203    0.0195   -0.0594   -0.0344   -0.0726    0.0000    0.0306
       19 O2     *px       -0.0000    0.0000    0.0030   -0.0011   -0.0038    0.0171   -0.0001    0.0044   -0.0000   -0.0028
       20 O2     2py       -0.0043    0.0000    0.1273   -0.1546   -0.0184    0.0187    0.0500    0.0610   -0.0000   -0.0154
       21 O2     *py        0.0012   -0.0000   -0.0311    0.0465    0.0002   -0.0016   -0.0044   -0.0010   -0.0000    0.0028
       22 O2     2pz        0.0000    0.0013   -0.0000    0.0000   -0.0000   -0.0000    0.0000   -0.0000   -0.0424    0.0000
       23 O2     *pz       -0.0000   -0.0010   -0.0000   -0.0000    0.0000    0.0000    0.0000    0.0000    0.0043   -0.0000
       24 O2     *d2-       0.0002   -0.0000    0.0026    0.0037    0.0005   -0.0048   -0.0010   -0.0060    0.0000    0.0006
       25 O2     *d1-       0.0000    0.0001   -0.0000    0.0000   -0.0000   -0.0000    0.0000   -0.0000   -0.0026    0.0000
       26 O2     *d0        0.0004   -0.0000   -0.0051    0.0068   -0.0006    0.0000   -0.0004   -0.0013    0.0000    0.0005
       27 O2     *d1+       0.0000    0.0000    0.0000   -0.0000   -0.0000    0.0000    0.0000   -0.0000    0.0004   -0.0000
       28 O2     *d2+       0.0002   -0.0000   -0.0098    0.0105    0.0006    0.0001   -0.0017   -0.0011    0.0000    0.0005
       29 C2     1s         0.0003   -0.0000    0.0024   -0.0008   -0.0090    0.0170   -0.0106   -0.0052   -0.0000    0.0007
       30 C2     2s        -0.0006   -0.0000    0.0402   -0.0148   -0.3107    0.6296   -0.2749   -0.0129    0.0000    0.0085
       31 C2     *s        -0.0002   -0.0000   -0.0036    0.0011    0.0055   -0.0116    0.0083    0.0040    0.0000   -0.0004
       32 C2     *s         0.0008    0.0000   -0.0018    0.0069    0.1693   -0.3044    0.1541    0.0469    0.0000    0.0063
       33 C2     2px        0.1084   -0.0000    0.0434   -0.0090   -0.1213    0.1069    0.2818    0.2121    0.0000    0.2708
       34 C2     *px        0.0012   -0.0000    0.0118   -0.0013   -0.0016   -0.0049    0.0091   -0.0026    0.0000    0.0102
       35 C2     *px       -0.0345    0.0000   -0.0031    0.0059    0.0535   -0.0343   -0.0904   -0.0419   -0.0000   -0.0955
       36 C2     2py        0.1791   -0.0000   -0.0252    0.0112    0.0563   -0.0681   -0.1283   -0.2768    0.0000    0.3608
       37 C2     *py       -0.0003   -0.0000   -0.0048    0.0033   -0.0042    0.0032   -0.0017   -0.0023    0.0000    0.0070
       38 C2     *py       -0.0559    0.0000    0.0094    0.0025   -0.0207    0.0252    0.0325    0.0826   -0.0000   -0.1390
       39 C2     2pz        0.0000    0.2042   -0.0000    0.0000   -0.0000    0.0000   -0.0000   -0.0000   -0.4706    0.0000
       40 C2     *pz        0.0000   -0.0004    0.0000   -0.0000   -0.0000    0.0000   -0.0000   -0.0000   -0.0103    0.0000
       41 C2     *pz       -0.0000   -0.0633   -0.0000   -0.0000    0.0000    0.0000    0.0000    0.0000    0.1714   -0.0000
       42 C2     *d2-      -0.0152    0.0000   -0.0032    0.0018    0.0022    0.0000   -0.0068    0.0017   -0.0000   -0.0151
       43 C2     *d2-      -0.0224    0.0000   -0.0122    0.0091    0.0065   -0.0002   -0.0103    0.0037   -0.0000   -0.0119
       44 C2     *d1-       0.0000    0.0232    0.0000   -0.0000   -0.0000    0.0000   -0.0000   -0.0000   -0.0221    0.0000
       45 C2     *d1-       0.0000    0.0329   -0.0000    0.0000   -0.0000    0.0000   -0.0000   -0.0000   -0.0114    0.0000
       46 C2     *d0        0.0160   -0.0000   -0.0035    0.0002    0.0025    0.0001   -0.0042   -0.0040    0.0000    0.0120
       47 C2     *d0        0.0236   -0.0000   -0.0010   -0.0007   -0.0020   -0.0002   -0.0001    0.0006    0.0000    0.0041
       48 C2     *d1+      -0.0000   -0.0031   -0.0000    0.0000    0.0000   -0.0000    0.0000   -0.0000    0.0096   -0.0000
       49 C2     *d1+      -0.0000   -0.0028    0.0000   -0.0000   -0.0000   -0.0000    0.0000    0.0000    0.0120   -0.0000
       50 C2     *d2+      -0.0087    0.0000    0.0018    0.0011   -0.0028   -0.0004    0.0041    0.0032   -0.0000   -0.0137
       51 C2     *d2+      -0.0117    0.0000    0.0062    0.0082   -0.0018    0.0023    0.0013    0.0025   -0.0000   -0.0157
       52 C2     *f3-       0.0067   -0.0000   -0.0025    0.0001    0.0026   -0.0052    0.0049    0.0033    0.0000    0.0025
       53 C2     *f2-      -0.0000   -0.0018    0.0000    0.0000   -0.0000    0.0000   -0.0000    0.0000   -0.0034    0.0000
       54 C2     *f1-       0.0052   -0.0000   -0.0000   -0.0008   -0.0032    0.0090   -0.0066   -0.0015    0.0000    0.0020
       55 C2     *f0        0.0000    0.0026    0.0000    0.0000   -0.0000   -0.0000    0.0000   -0.0000   -0.0034    0.0000
       56 C2     *f1+      -0.0065    0.0000   -0.0009    0.0003   -0.0004    0.0013    0.0008    0.0027   -0.0000   -0.0001
       57 C2     *f2+      -0.0000   -0.0107    0.0000   -0.0000    0.0000   -0.0000    0.0000    0.0000    0.0037   -0.0000
       58 C2     *f3+      -0.0039    0.0000   -0.0010    0.0027   -0.0003    0.0024   -0.0021    0.0031   -0.0000   -0.0054
       59 C3     1s         0.0001    0.0000   -0.0134    0.0046    0.0009   -0.0011    0.0021    0.0010    0.0000    0.0009
       60 C3     2s        -0.0004    0.0000    0.4591   -0.1967   -0.2953    0.1780    0.2842    0.1172    0.0000    0.0253
       61 C3     *s        -0.0045   -0.0000   -0.2175    0.0699    0.0551    0.0068   -0.0920   -0.0491   -0.0000   -0.0272
       62 C3     2px        0.0061   -0.0000    0.1240    0.0920    0.0307   -0.2237   -0.0250   -0.2130    0.0000    0.0011
       63 C3     *px       -0.0016    0.0000   -0.0542   -0.0494    0.0154    0.0353    0.0352    0.0654   -0.0000    0.0102
       64 C3     2py        0.0129   -0.0000   -0.0520    0.3353   -0.1945    0.0995    0.1399    0.0049    0.0000    0.0382
       65 C3     *py       -0.0073    0.0000    0.0179   -0.1498    0.0541   -0.0194   -0.0542    0.0078   -0.0000   -0.0120
       66 C3     2pz        0.0000    0.0086   -0.0000   -0.0000   -0.0000   -0.0000   -0.0000   -0.0000   -0.0753    0.0000
       67 C3     *pz        0.0000    0.0007    0.0000    0.0000   -0.0000    0.0000    0.0000   -0.0000    0.0010   -0.0000
       68 C3     *d2-      -0.0013    0.0000    0.0211    0.0207   -0.0066   -0.0171    0.0092   -0.0159   -0.0000   -0.0091
       69 C3     *d1-       0.0000    0.0010   -0.0000    0.0000    0.0000   -0.0000   -0.0000    0.0000   -0.0008   -0.0000
       70 C3     *d0       -0.0001    0.0000   -0.0188    0.0065    0.0096   -0.0040   -0.0060    0.0013   -0.0000   -0.0003
       71 C3     *d1+      -0.0000   -0.0028   -0.0000   -0.0000    0.0000    0.0000    0.0000   -0.0000    0.0049   -0.0000
       72 C3     *d2+      -0.0021    0.0000   -0.0151    0.0365   -0.0043    0.0066   -0.0044    0.0115   -0.0000   -0.0028
       73 C4     1s        -0.0001    0.0000   -0.0052   -0.0052   -0.0123   -0.0055    0.0025   -0.0033   -0.0000   -0.0017
       74 C4     2s         0.0018   -0.0000    0.1555    0.1401    0.5102    0.2050   -0.2040    0.3925    0.0000    0.1769
       75 C4     *s         0.0034   -0.0000   -0.0926   -0.0560   -0.1425   -0.0290    0.0861   -0.1226    0.0000   -0.0382
       76 C4     2px       -0.0020    0.0000   -0.0798   -0.0676    0.0389    0.1172    0.1546   -0.0415    0.0000    0.0197
       77 C4     *px       -0.0002    0.0000    0.0383    0.0250    0.0015   -0.0288   -0.0151    0.0101   -0.0000   -0.0093
       78 C4     2py        0.0009   -0.0000    0.0323    0.0387    0.0816    0.0419    0.0533   -0.1330   -0.0000   -0.0875
       79 C4     *py        0.0018   -0.0000   -0.0128   -0.0106   -0.0163   -0.0036    0.0123    0.0200   -0.0000    0.0195
       80 C4     2pz        0.0000    0.0002   -0.0000   -0.0000   -0.0000   -0.0000    0.0000   -0.0000   -0.0125   -0.0000
       81 C4     *pz       -0.0000   -0.0008   -0.0000   -0.0000   -0.0000   -0.0000   -0.0000    0.0000    0.0049   -0.0000
       82 C4     *d2-      -0.0006    0.0000   -0.0087   -0.0092    0.0051    0.0137    0.0198   -0.0073   -0.0000    0.0008
       83 C4     *d1-       0.0000    0.0000    0.0000   -0.0000   -0.0000   -0.0000   -0.0000    0.0000   -0.0003    0.0000
       84 C4     *d0       -0.0004    0.0000   -0.0096   -0.0085   -0.0118   -0.0020    0.0020    0.0059    0.0000    0.0043
       85 C4     *d1+       0.0000    0.0000   -0.0000   -0.0000   -0.0000   -0.0000   -0.0000    0.0000    0.0013   -0.0000
       86 C4     *d2+       0.0003   -0.0000    0.0104    0.0092    0.0020   -0.0060   -0.0089    0.0007   -0.0000   -0.0008
       87 C5     1s        -0.0000    0.0000   -0.0016   -0.0008   -0.0142   -0.0124   -0.0115    0.0087   -0.0000    0.0022
       88 C5     2s         0.0001    0.0000    0.0235    0.0336    0.4227    0.3591    0.3814   -0.3114   -0.0000   -0.1035
       89 C5     *s        -0.0013   -0.0000   -0.0006   -0.0135   -0.1266   -0.1030   -0.1239    0.0885    0.0000    0.0301
       90 C5     2px       -0.0000    0.0000   -0.0152   -0.0173   -0.0714   -0.0235    0.0585   -0.0802   -0.0000   -0.0244
       91 C5     *px        0.0001   -0.0000   -0.0033    0.0057    0.0297    0.0120   -0.0079    0.0150    0.0000    0.0038
       92 C5     2py       -0.0001    0.0000   -0.0095   -0.0102   -0.0726   -0.0382    0.0387   -0.1046   -0.0000   -0.0542
       93 C5     *py        0.0007    0.0000    0.0024    0.0018    0.0195    0.0138    0.0078    0.0158    0.0000    0.0099
       94 C5     2pz       -0.0000   -0.0001   -0.0000   -0.0000   -0.0000   -0.0000    0.0000   -0.0000   -0.0026   -0.0000
       95 C5     *pz        0.0000    0.0005    0.0000    0.0000    0.0000    0.0000   -0.0000    0.0000   -0.0018    0.0000
       96 C5     *d2-       0.0000    0.0000    0.0040    0.0035    0.0124    0.0051   -0.0056    0.0097    0.0000    0.0039
       97 C5     *d1-       0.0000   -0.0000   -0.0000    0.0000    0.0000    0.0000    0.0000   -0.0000    0.0002   -0.0000
       98 C5     *d0       -0.0000    0.0000   -0.0009   -0.0010   -0.0059   -0.0033    0.0016   -0.0049   -0.0000   -0.0026
       99 C5     *d1+      -0.0000   -0.0000    0.0000    0.0000    0.0000    0.0000    0.0000    0.0000    0.0003   -0.0000
      100 C5     *d2+       0.0001   -0.0000    0.0014    0.0009   -0.0019   -0.0018    0.0002   -0.0027    0.0000   -0.0016
      101 F6     1s         0.0019   -0.0000   -0.0004    0.0000    0.0012   -0.0022    0.0011    0.0001   -0.0000    0.0003
      102 F6     2s        -0.7707    0.0000   -0.0367    0.0388    0.0876   -0.2063    0.1407   -0.0101    0.0000    0.1798
      103 F6     *s         0.0445   -0.0000    0.0084   -0.0017    0.0011   -0.0262    0.0362   -0.0082    0.0000    0.0759
      104 F6     2px       -0.0618    0.0000    0.0056   -0.0089   -0.0823    0.2237   -0.1279    0.1794   -0.0000   -0.4239
      105 F6     *px        0.0191   -0.0000    0.0007   -0.0003    0.0038   -0.0189    0.0151   -0.0093    0.0000    0.0315
      106 F6     2py       -0.0408    0.0000   -0.0059    0.0045   -0.0251    0.1157   -0.2872   -0.1965   -0.0000   -0.2989
      107 F6     *py        0.0146   -0.0000    0.0020   -0.0028   -0.0006   -0.0083    0.0206    0.0067    0.0000    0.0270
      108 F6     2pz        0.0000    0.0197    0.0000    0.0000    0.0000    0.0000   -0.0000   -0.0000   -0.3886    0.0000
      109 F6     *pz       -0.0000   -0.0014    0.0000    0.0000   -0.0000   -0.0000    0.0000   -0.0000    0.0069   -0.0000
      110 F6     *d2-      -0.0048    0.0000   -0.0004    0.0001   -0.0019    0.0058   -0.0076   -0.0012   -0.0000   -0.0118
      111 F6     *d1-       0.0000    0.0015   -0.0000    0.0000    0.0000    0.0000   -0.0000   -0.0000   -0.0060    0.0000
      112 F6     *d0        0.0030   -0.0000    0.0000    0.0002    0.0013   -0.0038    0.0040   -0.0000    0.0000    0.0068
      113 F6     *d1+       0.0000    0.0016    0.0000   -0.0000   -0.0000    0.0000   -0.0000    0.0000   -0.0078    0.0000
      114 F6     *d2+      -0.0019    0.0000    0.0007   -0.0003   -0.0019    0.0031    0.0029    0.0068   -0.0000   -0.0036
      115 F7     1s        -0.0012    0.0018    0.0003    0.0000    0.0015   -0.0022    0.0006    0.0005   -0.0003   -0.0004
      116 F7     2s         0.3931   -0.6726   -0.0432   -0.0073    0.1066   -0.1987    0.1086    0.0710   -0.1601   -0.0825
      117 F7     *s        -0.0199    0.0349   -0.0031   -0.0000    0.0065   -0.0236    0.0252    0.0200   -0.0643   -0.0319
      118 F7     2px        0.0130   -0.0051    0.0078    0.0017   -0.0469    0.0534    0.1440    0.1428   -0.0006    0.2168
      119 F7     *px       -0.0004    0.0009   -0.0013   -0.0003    0.0026   -0.0055   -0.0038   -0.0076   -0.0015   -0.0033
      120 F7     2py       -0.0102    0.0458   -0.0023    0.0011    0.0650   -0.1567    0.0918   -0.0272   -0.4293    0.0721
      121 F7     *py        0.0055   -0.0115    0.0012   -0.0011   -0.0061    0.0115   -0.0069   -0.0038    0.0217    0.0068
      122 F7     2pz        0.0367   -0.0433   -0.0013    0.0013   -0.0665    0.1815   -0.2267   -0.2585    0.2519    0.3314
      123 F7     *pz       -0.0097    0.0154    0.0010    0.0002    0.0042   -0.0125    0.0149    0.0133   -0.0245   -0.0151
      124 F7     *d2-      -0.0009    0.0005   -0.0002   -0.0000    0.0012   -0.0014   -0.0023   -0.0023   -0.0006   -0.0029
      125 F7     *d1-      -0.0019    0.0046    0.0002   -0.0000    0.0024   -0.0061    0.0052    0.0032   -0.0117   -0.0032
      126 F7     *d0        0.0026   -0.0014   -0.0002    0.0001   -0.0008    0.0028   -0.0049   -0.0063    0.0019    0.0079
      127 F7     *d1+       0.0012   -0.0004    0.0004    0.0000   -0.0015    0.0017    0.0031    0.0025    0.0005    0.0050
      128 F7     *d2+      -0.0001    0.0020    0.0002    0.0001    0.0008   -0.0024    0.0017   -0.0005   -0.0063    0.0015
      129 F8     1s        -0.0012   -0.0018    0.0003    0.0000    0.0015   -0.0022    0.0006    0.0005    0.0003   -0.0004
      130 F8     2s         0.3931    0.6726   -0.0432   -0.0073    0.1066   -0.1987    0.1086    0.0710    0.1601   -0.0825
      131 F8     *s        -0.0199   -0.0349   -0.0031   -0.0000    0.0065   -0.0236    0.0252    0.0200    0.0643   -0.0319
      132 F8     2px        0.0130    0.0051    0.0078    0.0017   -0.0469    0.0534    0.1440    0.1428    0.0006    0.2168
      133 F8     *px       -0.0004   -0.0009   -0.0013   -0.0003    0.0026   -0.0055   -0.0038   -0.0076    0.0015   -0.0033
      134 F8     2py       -0.0102   -0.0458   -0.0023    0.0011    0.0650   -0.1567    0.0918   -0.0272    0.4293    0.0721
      135 F8     *py        0.0055    0.0115    0.0012   -0.0011   -0.0061    0.0115   -0.0069   -0.0038   -0.0217    0.0068
      136 F8     2pz       -0.0367   -0.0433    0.0013   -0.0013    0.0665   -0.1815    0.2267    0.2585    0.2519   -0.3314
      137 F8     *pz        0.0097    0.0154   -0.0010   -0.0002   -0.0042    0.0125   -0.0149   -0.0133   -0.0245    0.0151
      138 F8     *d2-      -0.0009   -0.0005   -0.0002   -0.0000    0.0012   -0.0014   -0.0023   -0.0023    0.0006   -0.0029
      139 F8     *d1-       0.0019    0.0046   -0.0002    0.0000   -0.0024    0.0061   -0.0052   -0.0032   -0.0117    0.0032
      140 F8     *d0        0.0026    0.0014   -0.0002    0.0001   -0.0008    0.0028   -0.0049   -0.0063   -0.0019    0.0079
      141 F8     *d1+      -0.0012   -0.0004   -0.0004   -0.0000    0.0015   -0.0017   -0.0031   -0.0025    0.0005   -0.0050
      142 F8     *d2+      -0.0001   -0.0020    0.0002    0.0001    0.0008   -0.0024    0.0017   -0.0005    0.0063    0.0015
      143 H9     1s         0.0002   -0.0004    0.0402    0.0316    0.1684    0.0709   -0.1000    0.2270    0.0086    0.1193
      144 H9     *s        -0.0000    0.0005   -0.0172   -0.0156   -0.0781   -0.0327    0.0417   -0.0950   -0.0054   -0.0495
      145 H9     *px       -0.0000   -0.0001   -0.0016   -0.0009   -0.0008    0.0003    0.0013   -0.0012    0.0003    0.0000
      146 H9     *py       -0.0000   -0.0000    0.0028    0.0026    0.0091    0.0035   -0.0049    0.0079    0.0002    0.0034
      147 H9     *pz        0.0001    0.0000    0.0039    0.0031    0.0119    0.0046   -0.0064    0.0130    0.0001    0.0067
      148 H10    1s         0.0002    0.0004    0.0402    0.0316    0.1684    0.0709   -0.1000    0.2270   -0.0086    0.1193
      149 H10    *s        -0.0000   -0.0005   -0.0172   -0.0156   -0.0781   -0.0327    0.0417   -0.0950    0.0054   -0.0495
      150 H10    *px       -0.0000    0.0001   -0.0016   -0.0009   -0.0008    0.0003    0.0013   -0.0012   -0.0003    0.0000
      151 H10    *py       -0.0000    0.0000    0.0028    0.0026    0.0091    0.0035   -0.0049    0.0079   -0.0002    0.0034
      152 H10    *pz       -0.0001    0.0000   -0.0039   -0.0031   -0.0119   -0.0046    0.0064   -0.0130    0.0001   -0.0067
      153 H11    1s         0.0001    0.0001    0.0039    0.0082    0.1421    0.1328    0.1786   -0.1814    0.0015   -0.0695
      154 H11    *s        -0.0003   -0.0000   -0.0018   -0.0031   -0.0649   -0.0604   -0.0770    0.0737   -0.0017    0.0269
      155 H11    *px        0.0001    0.0000   -0.0000   -0.0004   -0.0001    0.0011    0.0030   -0.0028   -0.0001   -0.0006
      156 H11    *py        0.0000   -0.0000   -0.0003   -0.0004   -0.0075   -0.0068   -0.0080    0.0065    0.0000    0.0022
      157 H11    *pz       -0.0000   -0.0000    0.0006    0.0009    0.0101    0.0089    0.0111   -0.0109    0.0001   -0.0041
      158 H12    1s         0.0001   -0.0001    0.0039    0.0082    0.1421    0.1328    0.1786   -0.1814   -0.0015   -0.0695
      159 H12    *s        -0.0003    0.0000   -0.0018   -0.0031   -0.0649   -0.0604   -0.0770    0.0737    0.0017    0.0269
      160 H12    *px        0.0001   -0.0000   -0.0000   -0.0004   -0.0001    0.0011    0.0030   -0.0028    0.0001   -0.0006
      161 H12    *py        0.0000    0.0000   -0.0003   -0.0004   -0.0075   -0.0068   -0.0080    0.0065   -0.0000    0.0022
      162 H12    *pz        0.0000   -0.0000   -0.0006   -0.0009   -0.0101   -0.0089   -0.0111    0.0109    0.0001    0.0041
      163 H13    1s         0.0001    0.0000    0.0053    0.0058    0.1410    0.1412    0.1954   -0.1678   -0.0000   -0.0494
      164 H13    *s         0.0004    0.0000   -0.0005   -0.0028   -0.0692   -0.0643   -0.0795    0.0634    0.0000    0.0188
      165 H13    *px       -0.0001   -0.0000   -0.0008   -0.0011   -0.0126   -0.0111   -0.0125    0.0103    0.0000    0.0029
      166 H13    *py       -0.0001    0.0000    0.0001   -0.0001    0.0044    0.0044    0.0063   -0.0058   -0.0000   -0.0021
      167 H13    *pz       -0.0000   -0.0000   -0.0000   -0.0000   -0.0000   -0.0000   -0.0000   -0.0000    0.0001   -0.0000
 
          Orbital           21        22        23        24        25        26        27        28        29        30    
          Energy           -0.7971   -0.7259   -0.7219   -0.7050   -0.7002   -0.6731   -0.6727   -0.6706   -0.6567   -0.6051
          Occ. No.          2.0000    2.0000    2.0000    2.0000    2.0000    2.0000    2.0000    2.0000    2.0000    2.0000
 
        1 O1     1s        -0.0012    0.0000   -0.0009   -0.0013   -0.0000    0.0000    0.0008   -0.0011    0.0000    0.0000
        2 O1     2s        -0.2534    0.0000   -0.0099    0.0111   -0.0000   -0.0000   -0.0129   -0.0754    0.0000    0.0000
        3 O1     *s        -0.0538   -0.0000    0.0099    0.0187    0.0000   -0.0000   -0.0102   -0.0157   -0.0000   -0.0000
        4 O1     2px       -0.3412    0.0000    0.0842   -0.2741   -0.0000    0.0000    0.0628    0.1481   -0.0000   -0.0000
        5 O1     *px        0.0386   -0.0000   -0.0004   -0.0010    0.0000    0.0000    0.0083   -0.0065    0.0000   -0.0000
        6 O1     2py       -0.3853    0.0000   -0.0322    0.0218   -0.0000   -0.0000    0.0134   -0.3694   -0.0000    0.0000
        7 O1     *py        0.0119    0.0000   -0.0109    0.0126   -0.0000    0.0000   -0.0007    0.0002    0.0000    0.0000
        8 O1     2pz       -0.0000   -0.2881    0.0000   -0.0000    0.4334   -0.0885    0.0000    0.0000   -0.0075   -0.3259
        9 O1     *pz       -0.0000   -0.0042   -0.0000    0.0000   -0.0007    0.0027   -0.0000    0.0000    0.0051   -0.0084
       10 O1     *d2-       0.0138   -0.0000   -0.0013    0.0067    0.0000   -0.0000   -0.0024   -0.0022   -0.0000   -0.0000
       11 O1     *d1-       0.0000    0.0084   -0.0000    0.0000   -0.0136    0.0028   -0.0000    0.0000    0.0005    0.0092
       12 O1     *d0       -0.0065    0.0000   -0.0008    0.0007   -0.0000    0.0000    0.0003   -0.0056    0.0000    0.0000
       13 O1     *d1+       0.0000    0.0023   -0.0000   -0.0000    0.0008   -0.0016    0.0000   -0.0000   -0.0008    0.0094
       14 O1     *d2+      -0.0103   -0.0000   -0.0015    0.0015    0.0000   -0.0000   -0.0008   -0.0099    0.0000    0.0000
       15 O2     1s         0.0012    0.0000   -0.0012    0.0026    0.0000   -0.0000   -0.0001    0.0006   -0.0000    0.0000
       16 O2     2s        -0.1899   -0.0000   -0.2014    0.2997    0.0000   -0.0000   -0.0495   -0.0232    0.0000    0.0000
       17 O2     *s        -0.0438   -0.0000   -0.0448    0.0593    0.0000   -0.0000   -0.0203   -0.0032    0.0000   -0.0000
       18 O2     2px        0.1739   -0.0000   -0.0953    0.0917    0.0000    0.0000    0.0557    0.2892   -0.0000    0.0000
       19 O2     *px       -0.0056    0.0000    0.0007   -0.0062   -0.0000    0.0000    0.0023   -0.0132    0.0000    0.0000
       20 O2     2py        0.1897    0.0000    0.2983   -0.5298   -0.0000    0.0000    0.1363    0.0495   -0.0000    0.0000
       21 O2     *py       -0.0137   -0.0000   -0.0177    0.0307    0.0000   -0.0000   -0.0081    0.0010   -0.0000   -0.0000
       22 O2     2pz       -0.0000   -0.1157    0.0000   -0.0000    0.1506    0.0037    0.0000   -0.0000    0.0009   -0.3748
       23 O2     *pz        0.0000    0.0101    0.0000   -0.0000   -0.0019   -0.0004    0.0000    0.0000    0.0032    0.0024
       24 O2     *d2-       0.0091   -0.0000   -0.0043    0.0051    0.0000    0.0000    0.0015    0.0105   -0.0000    0.0000
       25 O2     *d1-      -0.0000   -0.0068    0.0000   -0.0000    0.0088    0.0001    0.0000   -0.0000    0.0002   -0.0181
       26 O2     *d0       -0.0027    0.0000   -0.0058    0.0092    0.0000   -0.0000   -0.0022   -0.0016    0.0000    0.0000
       27 O2     *d1+      -0.0000    0.0001    0.0000   -0.0000   -0.0002   -0.0003    0.0000   -0.0000   -0.0003    0.0009
       28 O2     *d2+      -0.0071    0.0000   -0.0094    0.0184    0.0000   -0.0000   -0.0052   -0.0017    0.0000    0.0000
       29 C2     1s         0.0024    0.0000    0.0008    0.0001    0.0000    0.0000   -0.0001    0.0034    0.0000    0.0000
       30 C2     2s        -0.0536   -0.0000   -0.0152    0.0102    0.0000    0.0000    0.0019    0.0309    0.0000    0.0000
       31 C2     *s        -0.0001    0.0000    0.0005   -0.0004    0.0000   -0.0000    0.0002   -0.0043   -0.0000    0.0000
       32 C2     *s        -0.0339   -0.0000   -0.0278    0.0453   -0.0000   -0.0000   -0.0184    0.0016   -0.0000   -0.0000
       33 C2     2px       -0.1285    0.0000   -0.0406   -0.0865   -0.0000   -0.0000   -0.0870   -0.1151    0.0000    0.0000
       34 C2     *px        0.0053   -0.0000   -0.0016   -0.0003   -0.0000   -0.0000   -0.0103    0.0009   -0.0000   -0.0000
       35 C2     *px        0.0032   -0.0000    0.0069    0.0769   -0.0000    0.0000    0.0568    0.0877   -0.0000   -0.0000
       36 C2     2py        0.0123   -0.0000   -0.0829   -0.0977   -0.0000   -0.0000   -0.1017    0.0784    0.0000    0.0000
       37 C2     *py        0.0009   -0.0000   -0.0057   -0.0061   -0.0000   -0.0000   -0.0080    0.0045   -0.0000    0.0000
       38 C2     *py        0.0124    0.0000    0.0693    0.0496    0.0000    0.0000    0.0825   -0.0606   -0.0000    0.0000
       39 C2     2pz        0.0000   -0.0754    0.0000    0.0000   -0.1219   -0.1368    0.0000    0.0000   -0.0068    0.0165
       40 C2     *pz       -0.0000   -0.0060   -0.0000    0.0000   -0.0045   -0.0118    0.0000    0.0000   -0.0002   -0.0048
       41 C2     *pz       -0.0000    0.0540   -0.0000   -0.0000    0.0678    0.1078   -0.0000   -0.0000    0.0065    0.0036
       42 C2     *d2-      -0.0012   -0.0000    0.0018    0.0155    0.0000    0.0000    0.0212    0.0169   -0.0000   -0.0000
       43 C2     *d2-      -0.0105    0.0000   -0.0009    0.0273    0.0000    0.0000    0.0349    0.0263    0.0000    0.0000
       44 C2     *d1-       0.0000   -0.0124    0.0000    0.0000   -0.0200   -0.0306    0.0000    0.0000   -0.0022    0.0033
       45 C2     *d1-      -0.0000   -0.0202    0.0000    0.0000   -0.0328   -0.0485    0.0000    0.0000   -0.0036    0.0034
       46 C2     *d0       -0.0038   -0.0000   -0.0223   -0.0143   -0.0000   -0.0000   -0.0173    0.0120    0.0000   -0.0000
       47 C2     *d0        0.0018   -0.0000   -0.0404   -0.0280   -0.0000   -0.0000   -0.0280    0.0233   -0.0000    0.0000
       48 C2     *d1+      -0.0000   -0.0194    0.0000    0.0000   -0.0064    0.0052   -0.0000   -0.0000   -0.0004   -0.0011
       49 C2     *d1+      -0.0000   -0.0471    0.0000    0.0000   -0.0162    0.0095   -0.0000   -0.0000   -0.0003   -0.0048
       50 C2     *d2+       0.0073   -0.0000   -0.0108   -0.0023   -0.0000    0.0000    0.0116   -0.0128   -0.0000    0.0000
       51 C2     *d2+       0.0115   -0.0000   -0.0301   -0.0007   -0.0000    0.0000    0.0173   -0.0216    0.0000   -0.0000
       52 C2     *f3-      -0.0020   -0.0000   -0.0030   -0.0037    0.0000   -0.0000   -0.0116    0.0030   -0.0000    0.0000
       53 C2     *f2-      -0.0000   -0.0059    0.0000    0.0000   -0.0012    0.0157   -0.0000   -0.0000    0.0151    0.0051
       54 C2     *f1-      -0.0035   -0.0000   -0.0059   -0.0021   -0.0000   -0.0000   -0.0049    0.0085   -0.0000   -0.0000
       55 C2     *f0       -0.0000   -0.0053   -0.0000    0.0000   -0.0047    0.0072   -0.0000   -0.0000   -0.0205    0.0033
       56 C2     *f1+      -0.0025    0.0000   -0.0010    0.0053    0.0000    0.0000    0.0158    0.0050    0.0000    0.0000
       57 C2     *f2+       0.0000    0.0053   -0.0000   -0.0000    0.0086    0.0146   -0.0000   -0.0000   -0.0065   -0.0012
       58 C2     *f3+      -0.0013    0.0000    0.0092    0.0060    0.0000   -0.0000   -0.0113    0.0060    0.0000    0.0000
       59 C3     1s         0.0034   -0.0000    0.0049   -0.0054   -0.0000    0.0000    0.0005    0.0052   -0.0000   -0.0000
       60 C3     2s         0.3385   -0.0000    0.1864   -0.2547   -0.0000    0.0000    0.0240   -0.1042   -0.0000   -0.0000
       61 C3     *s        -0.0817    0.0000   -0.0648    0.0694    0.0000    0.0000    0.0018   -0.0732    0.0000    0.0000
       62 C3     2px        0.3099   -0.0000   -0.0564    0.1120    0.0000    0.0000    0.0156    0.3070   -0.0000    0.0000
       63 C3     *px       -0.1103   -0.0000   -0.0118   -0.0222   -0.0000   -0.0000   -0.0096   -0.0699   -0.0000   -0.0000
       64 C3     2py        0.0559   -0.0000   -0.1773    0.3605    0.0000   -0.0000   -0.1141   -0.1112    0.0000   -0.0000
[...]
   136 F8     2pz        0.0115   -0.0213   -0.0012    0.0427   -0.0275    0.0326    0.0443
   137 F8     *pz       -0.0061    0.0003    0.0040   -0.0022    0.0021   -0.0027    0.0102
   138 F8     *d2-      -0.0005   -0.0004    0.0004   -0.0006    0.0012   -0.0001   -0.0023
   139 F8     *d1-      -0.0019   -0.0003    0.0003   -0.0008    0.0011   -0.0005    0.0002
   140 F8     *d0       -0.0008    0.0004   -0.0001   -0.0004    0.0018   -0.0000   -0.0020
   141 F8     *d1+       0.0002   -0.0005    0.0002   -0.0010    0.0011   -0.0005    0.0002
   142 F8     *d2+       0.0007    0.0001    0.0001    0.0001   -0.0004   -0.0003   -0.0010
   143 H9     1s        -0.0125    0.0318    0.2837    0.0985    0.0345   -0.3559   -0.0773
   144 H9     *s         0.0072   -0.0147   -0.0687   -0.0197   -0.0296    0.0538   -0.1324
   145 H9     *px       -0.0025   -0.0040   -0.0017    0.0020    0.0027    0.0004   -0.0028
   146 H9     *py        0.0002   -0.0010   -0.0004    0.0029    0.0004   -0.0105   -0.0013
   147 H9     *pz       -0.0003    0.0029    0.0120   -0.0000    0.0006   -0.0057    0.0027
   148 H10    1s        -0.0117    0.0319    0.2833   -0.0985    0.0335    0.3561    0.0773
   149 H10    *s         0.0070   -0.0148   -0.0685    0.0197   -0.0293   -0.0539    0.1324
   150 H10    *px       -0.0024   -0.0040   -0.0017   -0.0020    0.0027   -0.0004    0.0028
   151 H10    *py        0.0002   -0.0010   -0.0004   -0.0029    0.0003    0.0105    0.0013
   152 H10    *pz        0.0003   -0.0029   -0.0120   -0.0000   -0.0006   -0.0057    0.0027
   153 H11    1s         0.2298   -0.1159    0.2440   -0.4969    0.0479    0.1680   -0.0051
   154 H11    *s        -0.0716    0.0352   -0.0416    0.1336   -0.0161   -0.0008    0.0624
   155 H11    *px       -0.0017    0.0101    0.0031   -0.0033   -0.0016   -0.0014   -0.0025
   156 H11    *py       -0.0001    0.0015    0.0005    0.0153   -0.0006   -0.0062   -0.0020
   157 H11    *pz        0.0103   -0.0046    0.0110   -0.0093    0.0019    0.0026    0.0003
   158 H12    1s         0.2294   -0.1160    0.2443    0.4969    0.0484   -0.1680    0.0051
   159 H12    *s        -0.0716    0.0352   -0.0417   -0.1336   -0.0161    0.0009   -0.0624
   160 H12    *px       -0.0017    0.0101    0.0031    0.0033   -0.0016    0.0014    0.0025
   161 H12    *py       -0.0001    0.0015    0.0005   -0.0153   -0.0006    0.0062    0.0020
   162 H12    *pz       -0.0103    0.0046   -0.0110   -0.0093   -0.0019    0.0026    0.0003
   163 H13    1s        -0.2711    0.5705   -0.0884    0.0000   -0.1262   -0.0001    0.0000
   164 H13    *s         0.0672   -0.1415    0.0321   -0.0000    0.0197    0.0000   -0.0000
   165 H13    *px        0.0103   -0.0182    0.0064   -0.0000    0.0036    0.0000   -0.0000
   166 H13    *py        0.0006    0.0089    0.0088    0.0000   -0.0017   -0.0000   -0.0000
   167 H13    *pz       -0.0000   -0.0000    0.0000    0.0123    0.0000   -0.0042   -0.0003
--
 
      Von Neumann Entropy (Root   1) =  1.00000
 

      Mulliken population analysis for root number:  1
      -----------------------------------------------
 
 
++    Molecular charges:
      ------------------
 
      Mulliken charges per centre and basis function type
      ---------------------------------------------------
 
                O1      O2      C2      C3      C4      C5      F6      F7      F8      H9      H10     H11   
      1s       2.0020  2.0019  0.9997  2.0030  2.0032  2.0038  2.0011  2.0011  2.0011  1.2695  1.2695  1.2635
      2s       1.7613  1.7995  1.5191  1.2855  1.4640  1.4491  1.9671  1.9629  1.9629  0.0000  0.0000  0.0000
      2px      1.2861  1.6556  1.7442  0.8130  0.8037  1.1411  1.5631  1.9574  1.9574  0.0000  0.0000  0.0000
      2pz      1.7840  1.5813  1.2542  1.1904  1.2346  1.1784  1.9543  1.5273  1.5273  0.0000  0.0000  0.0000
      2py      1.5909  1.3797  1.3946  0.9519  1.1166  1.1349  1.7102  1.7458  1.7458  0.0000  0.0000  0.0000
      *s       0.0065 -0.0486 -0.3502 -0.3562 -0.4178 -0.4204 -0.0812 -0.0759 -0.0759 -0.3378 -0.3378 -0.3348
      *px     -0.0759  0.0742 -0.5638 -0.1670 -0.1105 -0.1767 -0.0910 -0.0364 -0.0364  0.0019  0.0019  0.0051
      *pz      0.0631  0.0701 -0.3141 -0.0137 -0.2182 -0.1624 -0.0445 -0.0842 -0.0842  0.0164  0.0164  0.0157
      *py      0.0394 -0.0675 -0.4225 -0.1799 -0.1784 -0.1650 -0.0791 -0.0624 -0.0624  0.0107  0.0107  0.0102
      *d2+     0.0020  0.0082  0.0657  0.0565  0.0275  0.0078  0.0017  0.0008  0.0008  0.0000  0.0000  0.0000
      *d1+     0.0037  0.0001  0.0895  0.0173  0.0156  0.0028  0.0009  0.0010  0.0010  0.0000  0.0000  0.0000
      *d0      0.0026  0.0028  0.0858  0.0117  0.0192  0.0118  0.0016  0.0025  0.0025  0.0000  0.0000  0.0000
      *d1-     0.0022  0.0068  0.1148  0.0579  0.0281  0.0200  0.0006  0.0042  0.0042  0.0000  0.0000  0.0000
      *d2-     0.0090  0.0049  0.0802  0.1353  0.0331  0.0171  0.0047  0.0005  0.0005  0.0000  0.0000  0.0000
      *f3+     0.0000  0.0000  0.0097  0.0000  0.0000  0.0000  0.0000  0.0000  0.0000  0.0000  0.0000  0.0000
      *f2+     0.0000  0.0000  0.0113  0.0000  0.0000  0.0000  0.0000  0.0000  0.0000  0.0000  0.0000  0.0000
      *f1+     0.0000  0.0000  0.0089  0.0000  0.0000  0.0000  0.0000  0.0000  0.0000  0.0000  0.0000  0.0000
      *f0      0.0000  0.0000  0.0158  0.0000  0.0000  0.0000  0.0000  0.0000  0.0000  0.0000  0.0000  0.0000
      *f1-     0.0000  0.0000  0.0132  0.0000  0.0000  0.0000  0.0000  0.0000  0.0000  0.0000  0.0000  0.0000
      *f2-     0.0000  0.0000  0.0162  0.0000  0.0000  0.0000  0.0000  0.0000  0.0000  0.0000  0.0000  0.0000
      *f3-     0.0000  0.0000  0.0080  0.0000  0.0000  0.0000  0.0000  0.0000  0.0000  0.0000  0.0000  0.0000
      Total    8.4769  8.4690  5.7804  5.8057  5.8206  6.0423  8.9096  8.9446  8.9446  0.9607  0.9607  0.9596
 
      N-E     -0.4769 -0.4690  0.2196  0.1943  0.1794 -0.0423  0.0904  0.0554  0.0554  0.0393  0.0393  0.0404
 
                H12     H13   
      1s       1.2635  1.2674
      2s       0.0000  0.0000
      2px      0.0000  0.0000
      2pz      0.0000  0.0000
      2py      0.0000  0.0000
      *s      -0.3348 -0.3327
      *px      0.0051  0.0186
      *pz      0.0157  0.0055
      *py      0.0102  0.0069
      *d2+     0.0000  0.0000
      *d1+     0.0000  0.0000
      *d0      0.0000  0.0000
      *d1-     0.0000  0.0000
      *d2-     0.0000  0.0000
      *f3+     0.0000  0.0000
      *f2+     0.0000  0.0000
      *f1+     0.0000  0.0000
      *f0      0.0000  0.0000
      *f1-     0.0000  0.0000
      *f2-     0.0000  0.0000
      *f3-     0.0000  0.0000
      Total    0.9596  0.9657
 
      N-E      0.0404  0.0343
 
      Total electronic charge=   72.000000
 
      Total            charge=   -0.000000
--
 
 

      Expectation values of various properties for root number:  1
      -----------------------------------------------------------
 
 
++    Molecular properties:
      ---------------------
 
      Charge (e):
                      =   -0.0000
      Dipole Moment (Debye):
      Origin of the operator (Ang)=    0.0000    0.0000    0.0000
                   X= -1.2345E+00               Y=  3.3849E+00               Z= -1.8918E-09           Total=  3.6030E+00
      Quadrupole Moment (Debye*Ang):
      Origin of the operator (Ang)=    0.0000   -0.0000    0.0000
                  XX= -3.9381E+01              XY= -1.7496E+00              XZ=  8.1143E-09              YY= -5.8019E+01
                  YZ= -6.1507E-09              ZZ= -4.9370E+01
      In traceless form (Debye*Ang)
                  XX=  1.4313E+01              XY= -2.6244E+00              XZ=  1.2171E-08              YY= -1.3643E+01
                  YZ= -9.2260E-09              ZZ= -6.7014E-01
--
 
 
  Input file to MOLDEN was generated!
 
      Average orbitals are written to the RASORB file
      Natural orbitals for root   1 are written to the RASORB.1 file
      Spin density orbitals for root   1 are written to the SPDORB.1 file
 
--- Stop Module: rasscf at Wed Apr 13 16:33:22 2022 /rc=_RC_ALL_IS_WELL_ ---
*** files: cf3_ground_opt_mull_pop.rasscf.molden cf3_ground_opt_mull_pop.RasOrb cf3_ground_opt_mull_pop.RasOrb.1 cf3_ground_opt_mull_pop.rasscf.h5 cf3_ground_opt_mull_pop.SpdOrb.1
           xmldump
    saved to directory /home/oxygen16/FOUDAAE/ESCA_Molecule/auger/electronic_structure/CF3/ANO-RCC/triple_zeta/new/ground_opt/mull_pop
--- Module rasscf spent 1 minute 1 second ---

*** symbolic link created: INPORB -> cf3_ground_opt_mull_pop.RasOrb
--- Start Module: grid_it at Wed Apr 13 16:33:22 2022 ---
 
()()()()()()()()()()()()()()()()()()()()()()()()()()()()()()()()()()()()()()()()()()()()()()()()()()

                                              &GRID_IT

                       only a single process is used, running in SERIAL mode
                       available to each process: 10 GB of memory, 20 threads
                                             pid: 43921
()()()()()()()()()()()()()()()()()()()()()()()()()()()()()()()()()()()()()()()()()()()()()()()()()()
 
 iKey=                    34
 INPORB file: 
 /home/oxygen16/FOUDAAE/ESCA_Molecule/auger/electronic_structure/CF3/ANO-RCC/tri
 ple_zeta/new/ground_opt/mull_pop/cf3_ground_opt_mull_pop.RasOrb.1
 iKey=                    32
 iKey=                    38
 isLONGPRT= F
 
      Cartesian coordinates:
      -----------------------------------------
      No.  Label     X         Y         Z     
      -----------------------------------------
       1   O1         2.10457   0.46241   0.00000
       2   O2         0.26301  -3.40850   0.00000
       3   C2        -2.33157   0.36076   0.00000
       4   C3         0.17019  -1.13895   0.00000
       5   C4         4.57811  -0.72714   0.00000
       6   C5         6.51383   1.37227   0.00000
       7   F6        -4.28996  -1.19974   0.00000
       8   F7        -2.47994   1.83390  -2.04537
       9   F8        -2.47994   1.83390   2.04537
      10   H9         4.71685  -1.92617  -1.67076
      11   H10        4.71685  -1.92617   1.67076
      12   H11        6.30766   2.55507  -1.67454
      13   H12        6.30766   2.55507   1.67454
      14   H13        8.40889   0.55808   0.00000
      -----------------------------------------
      Grid Origin      =    -8.000000   -7.000000   -6.000000
      Grid Axis Length =    20.000000   12.000000   12.000000
      -----------------------------------------
 
 
   Input vectors read from INPORB
   Orbital file label: * RASSCF natural orbitals for root number  1 E=     -591.594504757698
  Number of grid points in file:                   83509
 
  Total number of MOs               :                   167
  Number MOs for grid               :                    20
  Batches processed in increments of:                 18432
 
GridName=  1   19      0.0000 (2.00) 2
GridName=  1   20      0.0000 (2.00) 2
GridName=  1   21      0.0000 (2.00) 2
GridName=  1   22      0.0000 (2.00) 2
GridName=  1   23      0.0000 (2.00) 2
GridName=  1   24      0.0000 (2.00) 2
GridName=  1   25      0.0000 (2.00) 2
GridName=  1   26      0.0000 (2.00) 2
GridName=  1   27      0.0000 (2.00) 2
GridName=  1   28      0.0000 (2.00) 2
GridName=  1   29      0.0000 (2.00) 2
GridName=  1   30      0.0000 (2.00) 2
GridName=  1   31      0.0000 (2.00) 2
GridName=  1   32      0.0000 (2.00) 2
GridName=  1   33      0.0000 (2.00) 2
GridName=  1   34      0.0000 (2.00) 2
GridName=  1   35      0.0000 (2.00) 2
GridName=  1   36      0.0000 (2.00) 2
GridName=  1   37      0.0000 (1.00) 3
 
 isMULL= T
 
 
 
         **************************
++        Charges per occupied MO
         **************************
 
 
 
          MO:  19      Symm.: 1      Occ. No.: 2.0000
      Mulliken charges per centre
      ---------------------------
 
                O1      O2      C2      C3      C4      C5      F6      F7      F8      H9      H10     H11   
      Total   -0.0002  0.0080  0.5489  0.0007  0.0296  0.0127  0.3213  0.5259  0.5259  0.0100  0.0100  0.0036
 
 
                H12     H13   
      Total    0.0036  0.0000
 
 
 
          MO:  20      Symm.: 1      Occ. No.: 2.0000
      Mulliken charges per centre
      ---------------------------
 
                O1      O2      C2      C3      C4      C5      F6      F7      F8      H9      H10     H11   
      Total    0.0219  0.0067  0.5285  0.0083  0.0736  0.0350  0.5499  0.3466  0.3467  0.0270  0.0270  0.0082
 
 
                H12     H13   
      Total    0.0081  0.0125
 
 
 
          MO:  21      Symm.: 1      Occ. No.: 2.0000
      Mulliken charges per centre
      ---------------------------
 
                O1      O2      C2      C3      C4      C5      F6      F7      F8      H9      H10     H11   
      Total    0.7563  0.2542  0.0737  0.2682  0.2363  0.0255  0.1101  0.0677  0.0677  0.0632  0.0634  0.0015
 
 
                H12     H13   
      Total    0.0016  0.0106
 
 
 
          MO:  22      Symm.: 1      Occ. No.: 2.0000
      Mulliken charges per centre
      ---------------------------
 
                O1      O2      C2      C3      C4      C5      F6      F7      F8      H9      H10     H11   
      Total    0.1584  0.0087  0.0635  0.0100  0.1639  0.0072  0.3071  0.5831  0.5825  0.0575  0.0575  0.0003
 
 
                H12     H13   
      Total    0.0003  0.0000
 
 
 
          MO:  23      Symm.: 1      Occ. No.: 2.0000
      Mulliken charges per centre
      ---------------------------
 
                O1      O2      C2      C3      C4      C5      F6      F7      F8      H9      H10     H11   
      Total    0.0273  0.3623  0.0791  0.0910  0.0139  0.0029  0.3373  0.5376  0.5377  0.0046  0.0046  0.0005
 
 
                H12     H13   
      Total    0.0005  0.0008
 
 
 
          MO:  24      Symm.: 1      Occ. No.: 2.0000
      Mulliken charges per centre
      ---------------------------
 
                O1      O2      C2      C3      C4      C5      F6      F7      F8      H9      H10     H11   
      Total    0.1594  0.7706  0.0708  0.2218  0.0979  0.0232  0.2937  0.1484  0.1485  0.0253  0.0253  0.0028
 
 
                H12     H13   
      Total    0.0028  0.0095
 
 
 
          MO:  25      Symm.: 1      Occ. No.: 2.0000
      Mulliken charges per centre
      ---------------------------
 
                O1      O2      C2      C3      C4      C5      F6      F7      F8      H9      H10     H11   
      Total    0.2483 -0.0006  0.0932  0.0114  0.5068  0.1006  0.2421  0.1932  0.1930  0.1806  0.1807  0.0251
 
 
                H12     H13   
      Total    0.0251  0.0003
 
 
 
          MO:  26      Symm.: 1      Occ. No.: 2.0000
      Mulliken charges per centre
      ---------------------------
 
                O1      O2      C2      C3      C4      C5      F6      F7      F8      H9      H10     H11   
      Total    0.0065  0.0237  0.0729  0.0271  0.1177  0.0384  0.3101  0.6505  0.6504  0.0402  0.0402  0.0111
 
 
                H12     H13   
      Total    0.0111  0.0001
 
 
 
          MO:  27      Symm.: 1      Occ. No.: 2.0000
      Mulliken charges per centre
      ---------------------------
 
                O1      O2      C2      C3      C4      C5      F6      F7      F8      H9      H10     H11   
      Total    0.0083  0.0592  0.0932  0.0161  0.0042  0.0020  0.7628  0.5254  0.5253  0.0009  0.0009  0.0003
 
 
                H12     H13   
      Total    0.0003  0.0012
 
 
 
          MO:  28      Symm.: 1      Occ. No.: 2.0000
      Mulliken charges per centre
      ---------------------------
 
                O1      O2      C2      C3      C4      C5      F6      F7      F8      H9      H10     H11   
      Total    0.3712  0.2074  0.0903  0.1826  0.1435  0.0998  0.4426  0.1970  0.1970  0.0115  0.0115  0.0205
 
 
                H12     H13   
      Total    0.0204  0.0048
 
 
 
          MO:  29      Symm.: 1      Occ. No.: 2.0000
      Mulliken charges per centre
      ---------------------------
 
                O1      O2      C2      C3      C4      C5      F6      F7      F8      H9      H10     H11   
      Total    0.0000  0.0009  0.0194  0.0003  0.0021  0.0007  0.7107  0.6320  0.6322  0.0007  0.0007  0.0002
 
 
                H12     H13   
      Total    0.0002  0.0000
 
 
 
          MO:  30      Symm.: 1      Occ. No.: 2.0000
      Mulliken charges per centre
      ---------------------------
 
                O1      O2      C2      C3      C4      C5      F6      F7      F8      H9      H10     H11   
      Total    0.0396  1.2546  0.0322  0.6161 -0.0032  0.0000  0.0130  0.0224  0.0226  0.0012  0.0013  0.0001
 
 
                H12     H13   
      Total    0.0001 -0.0000
 
 
 
          MO:  31      Symm.: 1      Occ. No.: 2.0000
      Mulliken charges per centre
      ---------------------------
 
                O1      O2      C2      C3      C4      C5      F6      F7      F8      H9      H10     H11   
      Total    0.4698  0.2153  0.1630  0.1288  0.1531  0.3467  0.1083  0.0633  0.0634  0.0006  0.0006  0.0833
 
 
                H12     H13   
      Total    0.0830  0.1207
 
 
 
          MO:  32      Symm.: 1      Occ. No.: 2.0000
      Mulliken charges per centre
      ---------------------------
 
                O1      O2      C2      C3      C4      C5      F6      F7      F8      H9      H10     H11   
      Total    0.1444  0.1621  0.0196  0.0482  0.2203  0.7750  0.0375  0.0040  0.0040  0.0017  0.0017  0.0243
 
 
                H12     H13   
      Total    0.0243  0.5331
 
 
 
          MO:  33      Symm.: 1      Occ. No.: 2.0000
      Mulliken charges per centre
      ---------------------------
 
                O1      O2      C2      C3      C4      C5      F6      F7      F8      H9      H10     H11   
      Total    0.3530  0.0402  0.0131  0.0420  0.5307  0.5171  0.0022  0.0020  0.0020  0.1301  0.1298  0.1123
 
 
                H12     H13   
      Total    0.1125  0.0130
 
 
 
          MO:  34      Symm.: 1      Occ. No.: 2.0000
      Mulliken charges per centre
      ---------------------------
 
                O1      O2      C2      C3      C4      C5      F6      F7      F8      H9      H10     H11   
      Total    0.2567  0.0215  0.0026  0.0080  0.0238  0.8291  0.0021  0.0221  0.0220  0.0122  0.0122  0.3916
 
 
                H12     H13   
      Total    0.3916  0.0046
 
 
 
          MO:  35      Symm.: 1      Occ. No.: 2.0000
      Mulliken charges per centre
      ---------------------------
 
                O1      O2      C2      C3      C4      C5      F6      F7      F8      H9      H10     H11   
      Total    0.1577  1.1601  0.3331  0.1148  0.0282  0.0257  0.0201  0.0623  0.0624  0.0022  0.0021  0.0027
 
 
                H12     H13   
      Total    0.0028  0.0258
 
 
 
          MO:  36      Symm.: 1      Occ. No.: 2.0000
      Mulliken charges per centre
      ---------------------------
 
                O1      O2      C2      C3      C4      C5      F6      F7      F8      H9      H10     H11   
      Total    1.0908  0.1110  0.0023  0.0487  0.2193  0.0498  0.0000  0.0089  0.0090  0.1808  0.1809  0.0491
 
 
                H12     H13   
      Total    0.0491  0.0004
 
 
 
          MO:  37      Symm.: 1      Occ. No.: 1.0000
      Mulliken charges per centre
      ---------------------------
 
                O1      O2      C2      C3      C4      C5      F6      F7      F8      H9      H10     H11   
      Total    0.0527  0.2305  0.1412  0.5278  0.0001  0.0002  0.0028  0.0117  0.0117  0.0102  0.0102  0.0005
 
 
                H12     H13   
      Total    0.0005 -0.0000
 
 
 
--- Stop Module: grid_it at Wed Apr 13 16:33:33 2022 /rc=_RC_ALL_IS_WELL_ ---
*** files: cf3_ground_opt_mull_pop.lus xmldump
    saved to directory /home/oxygen16/FOUDAAE/ESCA_Molecule/auger/electronic_structure/CF3/ANO-RCC/triple_zeta/new/ground_opt/mull_pop
--- Module grid_it spent 10 seconds ---

.##################.
.# Happy landing! #.
.##################.

    Timing: Wall=151.22 User=2324.81 System=110.43
