*******************************************************************************
*** WorkDir at /home/oxygen/FOUDAAE/SCRATCH/coo_ground_opt_mull_pop cleaned ***
*******************************************************************************
   This run of MOLCAS is using the pymolcas driver

                             OPE
                             OPE          NMOL  CASOP  ENMOLC A   SO
                 OPE        NMOLC        AS  OP EN  MO LC     AS  OP
                OPENM       OL CA        SO  PE NM  OL CA     SOP EN
                OP EN      MO   LC       AS  OP ENMOL  CASO   PENMOL
                OP  EN     MO   LC       AS  OP EN     MO     LC ASO
               OP   E  NMOL  C  AS       OP  EN MO     LC     AS  OP
               OP  E   NMO   LC AS        OPEN  MO     LCASOP EN   M
               O  PEN   MO  LCA  SO
            OPE   NMO   L   CAS    OP
        OPENMOL  CASOP     ENMOL   CASOPE
     OPENMOLCA   SOPENMOLCASOPEN   MOLCASOPE
    OPENMOLCAS   OP           EN   MOL    CAS
    OPENMOLCAS       OP  ENM        O     LCA
    OPENMOLCAS    OPEN  MOLCASO     P  E  NMO
    OPENMOLCAS     OP               E  N  MOL
    OPENMOLCA   SO           PENM   O  L  CAS    OPEN    MO    LCAS
    OPENMOLCA   SOP           ENM   O  L  CAS   OP  EN  MOLC  AS   O
    OPENMOLCA   SOPE           NM      O  LCA   S      OP  EN MO
    OPENMOLC                AS         O  PEN   M      OL  CA  SOPE
    OPENMO        LCASOPE  NMOL        C  ASO   P      ENMOLC     AS
    OPE     NMO      LCA  SO     P     E   NM   OL  CA SO  PE N   MO
          OPENMOLCA            SOPE   NMO        LCAS  O    P  ENMO
     OPENMOLCASOPENMOLCASOPENMOLCASOPENMOLCA
        OPENMOLCASOPENMOLCASOPENMOLCASOPE
            OPENMOLCASOPENMOLCASOPENM
               OPENMOLCASOPENMOLCA        version: 19.11
                   OPENMOLCASO
                       OPE                tag: 1295-gb0180ad-dirty

 OpenMolcas is free software; you can redistribute it and/or modify it
 under the terms of the GNU Lesser General Public License version 2.1.
 OpenMolcas is distributed in the hope that it will be useful, but it
 is provided "as is" and without any express or implied warranties.
 For more details see the full text of the license in the file
 LICENSE or in <http://www.gnu.org/licenses/>.

                 Copyright (C) The OpenMolcas Authors
           For the author list and the recommended citation,
                   consult the file CONTRIBUTORS.md

           *************************************************
           * pymolcas version py2.21                       *
           *   build 2bd16bb389df3613e1e89259b2a6a5b3      *
           *   (after the EMIL interpreter by V. Veryazov) *
           *************************************************

configuration info
------------------
Host name: dirac.aps.anl.gov (Linux)
C Compiler ID: Intel
C flags: -std=gnu99 -gcc-sys -qopenmp
Fortran Compiler ID: Intel
Fortran flags: -fpp -i8 -r8 -heap-arrays -qopenmp
Definitions: _MOLCAS_;_I8_;_LINUX_;_MOLCAS_MPP_;_SCALAPACK_;_GA_
Parallel: ON (GA=ON)


   --------------------------------------------------------------------------------------------------------------------------------------
  |
  |              Project: coo_ground_opt_mull_pop
  |       Submitted from: /home/oxygen16/FOUDAAE/ESCA_Molecule/auger/electronic_structure/COO/ANO-RCC/triple_zeta/new/ground_opt/mull_pop
  |         Scratch area: /home/oxygen/FOUDAAE/SCRATCH/coo_ground_opt_mull_pop
  |      Save outputs to: /home/oxygen16/FOUDAAE/ESCA_Molecule/auger/electronic_structure/COO/ANO-RCC/triple_zeta/new/ground_opt/mull_pop
  |               Molcas: /home/oxygen/FOUDAAE/OpenMolcas/OpenMolcas-aeaf-intel-2021.4.0
  |
  | Scratch area is empty
  |
  |       MOLCAS_DRIVER = /home/oxygen16/FOUDAAE/OpenMolcas/OpenMolcas-aeaf-intel-2021.4.0/pymolcas
  | MOLCAS_KEEP_WORKDIR = YES
  |       MOLCAS_MOLDEN = YES
  |       MOLCAS_MXROOT = 1000
  |  MOLCAS_NEW_WORKDIR = YES
  |       MOLCAS_NPROCS = 1
  |         MOLCAS_SAVE = REPL
  |       MOLCAS_SOURCE = /home/oxygen/FOUDAAE/OpenMolcas/OpenMolcas-aeaf
  |    MOLCAS_STRUCTURE = 0
  |
   --------------------------------------------------------------------------------------------------------------------------------------

++ ---------   Input file   ---------

&SEWARD
Basis set
        O.cc-pVDZ
        O1              2.1045665482        0.4624131451       -0.0000000000
            O2          0.2630129100       -3.4084985275        0.0000000000
End of basis
Basis set
        C.cc-pVTZ
        C3      0.1701936000       -1.1389453704        0.0000000000
End of basis
Basis set
        C.cc-pVDZ
                C2         -2.3315748948        0.3607607710       -0.0000000000
                C4              4.5781089237       -0.7271427005        0.0000000000
                C5              6.5138344115        1.3722660590       -0.0000000000
End of basis
Basis set
        F.cc-pVDZ
                F6      -4.2899578837       -1.1997424117        0.0000000000
                F7     -2.4799414196        1.8338969094       -2.0453712839
                F8     -2.4799414196        1.8338969094        2.0453712839
End of basis
Basis set
        H.cc-pVDZ
                H9              4.7168459744       -1.9261736704       -1.6707600828
                H10             4.7168459744       -1.9261736704        1.6707600828
                H11             6.3076573115        2.5550709898       -1.6745402537
                H12             6.3076573115        2.5550709898        1.6745402537
                H13             8.4088873192        0.5580793570       -0.0000000000
End of basis
RICD

&SCF

&RASSCF
        Symmetry= 1

    Spin=1

    Charge=0

        NACTEL= 38 1 1
        CiRoot= 1 1 1
        Inactive=17
    RAS1 = 1
    RAS2 = 18
        RAS3 = 1
        SUPSym
        2
        1 7
        1 37
    LumOrb
        Alter=1
 1 7 18

>>> COPY $CurrDir/$Project.rasscf.molden $CurrDir/$Project.ground.molden

&RASSCF
        Symmetry= 1

    Spin=1

    Charge=0

        NACTEL= 38 1 1
        CiRoot= 1 1 1
        Inactive=17
    RAS1 = 1
    RAS2 = 18
        RAS3 = 1
        HEXS = 1
 1
        SUPSym
        2
        1 18
        1 37
        LumOrb

&GRID_IT
        FileOrb=$CurrDir/$Project.RasOrb.1
        SELEct
        1:19-37
        MULLiken

-- ----------------------------------

--- Start Module: seward at Wed Apr 13 16:39:17 2022 ---
 
()()()()()()()()()()()()()()()()()()()()()()()()()()()()()()()()()()()()()()()()()()()()()()()()()()

                                              &SEWARD

                       only a single process is used, running in SERIAL mode
                       available to each process: 10 GB of memory, 20 threads
                                             pid: 44989
()()()()()()()()()()()()()()()()()()()()()()()()()()()()()()()()()()()()()()()()()()()()()()()()()()
 
               SEWARD will generate:
                  Multipole Moment integrals up to order  2
                  Kinetic Energy integrals
                  Nuclear Attraction integrals (point charge)
                  One-Electron Hamiltonian integrals
                  Velocity integrals
                  Orbital angular momentum around ( 0.0000 -0.0000  0.0000 )
                  Velocity quadrupole around ( 0.0000 -0.0000  0.0000 )
                  RI decomposed two-electron repulsion integrals stored Cholesky style
                   - acCD auxiliary basis
                   - CD Threshold:   0.10E-03
 
                   Integrals are discarded if absolute value <: 0.10E-13
                   Integral cutoff threshold is set to       <: 0.10E-15
 
++    Symmetry information:
      ---------------------
 
                    Character Table for C1 
 
                             E  
                    a        1  x, y, xy, Rz, z, xz, Ry, yz, Rx, I
--
 
 
++    Basis set information:
      ----------------------
 
 
      Basis set label: O.CC-PVDZ.........
 
      Electronic valence basis set:
      ------------------
      Associated Effective Charge   8.000000 au
      Associated Actual Charge      8.000000 au
      Nuclear Model: Point charge
 
      Shell  nPrim  nBasis  Cartesian Spherical Contaminant
         s       9       3        X                  
         p       4       2        X                  
         d       1       1                 X         
 
 
      Basis set label: C.CC-PVTZ.........
 
      Electronic valence basis set:
      ------------------
      Associated Effective Charge   6.000000 au
      Associated Actual Charge      6.000000 au
      Nuclear Model: Point charge
 
      Shell  nPrim  nBasis  Cartesian Spherical Contaminant
         s      10       4        X                  
         p       5       3        X                  
         d       2       2                 X         
         f       1       1                 X         
 
 
      Basis set label: C.CC-PVDZ.........
 
      Electronic valence basis set:
      ------------------
      Associated Effective Charge   6.000000 au
      Associated Actual Charge      6.000000 au
      Nuclear Model: Point charge
 
      Shell  nPrim  nBasis  Cartesian Spherical Contaminant
         s       9       3        X                  
         p       4       2        X                  
         d       1       1                 X         
 
 
      Basis set label: F.CC-PVDZ.........
 
      Electronic valence basis set:
      ------------------
      Associated Effective Charge   9.000000 au
      Associated Actual Charge      9.000000 au
      Nuclear Model: Point charge
 
      Shell  nPrim  nBasis  Cartesian Spherical Contaminant
         s       9       3        X                  
         p       4       2        X                  
         d       1       1                 X         
 
 
      Basis set label: H.CC-PVDZ.........
 
      Electronic valence basis set:
      ------------------
      Associated Effective Charge   1.000000 au
      Associated Actual Charge      1.000000 au
      Nuclear Model: Point charge
 
      Shell  nPrim  nBasis  Cartesian Spherical Contaminant
         s       4       2        X                  
         p       1       1        X                  
--
 
 
++    Molecular structure info:
      -------------------------
 
                    ************************************************ 
                    **** Cartesian Coordinates / Bohr, Angstrom **** 
                    ************************************************ 
 
     Center  Label                x              y              z                     x              y              z
        1      O1               2.104567       0.462413       0.000000              1.113689       0.244698       0.000000
        2      O2               0.263013      -3.408499       0.000000              0.139180      -1.803700       0.000000
        3      C3               0.170194      -1.138945       0.000000              0.090063      -0.602704       0.000000
        4      C2              -2.331575       0.360761       0.000000             -1.233816       0.190906       0.000000
        5      C4               4.578109      -0.727143       0.000000              2.422631      -0.384787       0.000000
        6      C5               6.513834       1.372266       0.000000              3.446973       0.726172       0.000000
        7      F6              -4.289958      -1.199742       0.000000             -2.270148      -0.634876       0.000000
        8      F7              -2.479941       1.833897      -2.045371             -1.312328       0.970456      -1.082364
        9      F8              -2.479941       1.833897       2.045371             -1.312328       0.970456       1.082364
       10      H9               4.716846      -1.926174      -1.670760              2.496047      -1.019287      -0.884128
       11      H10              4.716846      -1.926174       1.670760              2.496047      -1.019287       0.884128
       12      H11              6.307657       2.555071      -1.674540              3.337869       1.352085      -0.886129
       13      H12              6.307657       2.555071       1.674540              3.337869       1.352085       0.886129
       14      H13              8.408887       0.558079       0.000000              4.449792       0.295323       0.000000
 
                    *************************************** 
                    *    InterNuclear Distances / Bohr    * 
                    *************************************** 
 
               1 O1            2 O2            3 C3            4 C2            5 C4            6 C5    
    1 O1       0.000000
    2 O2       4.286639        0.000000
    3 C3       2.511204        2.271450        0.000000
    4 C2       4.437306        4.575937        2.916841        0.000000
    5 C4       2.744714        5.080327        4.427110        6.994803        0.000000
    6 C5       4.502163        7.869465        6.822607        8.903056        2.855617        0.000000
    7 F6       6.607019        5.060449        4.460566        2.504083        8.880651       11.105726
    8 F7       5.204058        6.260196        4.477114        2.525012        7.781937        9.234969
    9 F8       5.204058        6.260196        4.477114        2.525012        7.781937        9.234969
   10 H9       3.914178        4.982505        4.907465        7.596166        2.061156        4.110999
   11 H10      3.914178        4.982505        4.907465        7.596166        2.061156        4.110999
   12 H11      4.984905        8.654824        7.356514        9.069477        4.070424        2.060491
   13 H12      4.984905        8.654824        7.356514        9.069477        4.070424        2.060491
   14 H13      6.305047        9.060299        8.411657       10.742275        4.040626        2.062553
 
               7 F6            8 F7            9 F8           10 H9           11 H10          12 H11   
    7 F6       0.000000
    8 F7       4.081993        0.000000
    9 F8       4.081993        4.090743        0.000000
   10 H9       9.189214        8.128482        8.929810        0.000000
   11 H10      9.189214        8.929810        8.128482        3.341520        0.000000
   12 H11     11.367153        8.824936        9.569730        4.755234        5.814058        0.000000
   13 H12     11.367153        9.569730        8.824936        5.814058        4.755234        3.349081
   14 H13     12.819930       11.152482       11.152482        4.753327        4.753327        3.347720
 
              13 H12          14 H13   
   13 H12      0.000000
   14 H13      3.347720        0.000000
 
                    ******************************************* 
                    *    InterNuclear Distances / Angstrom    * 
                    ******************************************* 
 
               1 O1            2 O2            3 C3            4 C2            5 C4            6 C5    
    1 O1       0.000000
    2 O2       2.268392        0.000000
    3 C3       1.328872        1.202000        0.000000
    4 C2       2.348121        2.421482        1.543526        0.000000
    5 C4       1.452440        2.688393        2.342725        3.701490        0.000000
    6 C5       2.382442        4.164342        3.610368        4.711294        1.511128        0.000000
    7 F6       3.496284        2.677874        2.360430        1.325104        4.699438        5.876897
    8 F7       2.753869        3.312753        2.369187        1.336179        4.118024        4.886935
    9 F8       2.753869        3.312753        2.369187        1.336179        4.118024        4.886935
   10 H9       2.071294        2.636628        2.596919        4.019718        1.090717        2.175447
   11 H10      2.071294        2.636628        2.596919        4.019718        1.090717        2.175447
   12 H11      2.637898        4.579935        3.892900        4.799361        2.153975        1.090365
   13 H12      2.637898        4.579935        3.892900        4.799361        2.153975        1.090365
   14 H13      3.336487        4.794504        4.451257        5.684567        2.138207        1.091456
 
               7 F6            8 F7            9 F8           10 H9           11 H10          12 H11   
    7 F6       0.000000
    8 F7       2.160098        0.000000
    9 F8       2.160098        2.164728        0.000000
   10 H9       4.862723        4.301407        4.725452        0.000000
   11 H10      4.862723        4.725452        4.301407        1.768256        0.000000
   12 H11      6.015238        4.669955        5.064083        2.516361        3.076667        0.000000
   13 H12      6.015238        5.064083        4.669955        3.076667        2.516361        1.772257
   14 H13      6.784015        5.901639        5.901639        2.515353        2.515353        1.771537
 
              13 H12          14 H13   
   13 H12      0.000000
   14 H13      1.771537        0.000000
 
                    ************************************** 
                    *    Valence Bond Angles / Degree    * 
                    ************************************** 
                          Atom centers                 Phi
                      3 C3       1 O1       5 C4       114.70
                      1 O1       3 C3       2 O2       127.28
                      1 O1       3 C3       4 C2       109.44
                      2 O2       3 C3       4 C2       123.28
                      3 C3       4 C2       7 F6       110.51
                      3 C3       4 C2       8 F7       110.51
                      3 C3       4 C2       9 F8       110.51
                      7 F6       4 C2       8 F7       108.52
                      7 F6       4 C2       9 F8       108.52
                      8 F7       4 C2       9 F8       108.20
                      1 O1       5 C4       6 C5       106.99
                      1 O1       5 C4      10 H9       108.23
                      1 O1       5 C4      11 H10      108.23
                      6 C5       5 C4      10 H9       112.46
                      6 C5       5 C4      11 H10      112.46
                     10 H9       5 C4      11 H10      108.31
                      5 C4       6 C5      12 H11      110.74
                      5 C4       6 C5      13 H12      110.74
                      5 C4       6 C5      14 H13      109.43
                     12 H11      6 C5      13 H12      108.72
                     12 H11      6 C5      14 H13      108.57
                     13 H12      6 C5      14 H13      108.57
 
           ***************************************************************
           *              Valence Dihedral Angles / Degree               *
           ***************************************************************
                    Atom centers                       Phi1     Phi2     Theta 
           3 C3       1 O1       5 C4       6 C5        114.70   106.99  -180.00
           3 C3       1 O1       5 C4      10 H9        114.70   108.23    58.58
           3 C3       1 O1       5 C4      11 H10       114.70   108.23   -58.58
           2 O2       3 C3       1 O1       5 C4        127.28   114.70     0.00
           4 C2       3 C3       1 O1       5 C4        109.44   114.70  -180.00
           1 O1       3 C3       4 C2       7 F6        109.44   110.51  -180.00
           1 O1       3 C3       4 C2       8 F7        109.44   110.51    59.87
           1 O1       3 C3       4 C2       9 F8        109.44   110.51   -59.87
           2 O2       3 C3       4 C2       7 F6        123.28   110.51     0.00
           2 O2       3 C3       4 C2       8 F7        123.28   110.51  -120.13
           2 O2       3 C3       4 C2       9 F8        123.28   110.51   120.13
           1 O1       5 C4       6 C5      12 H11       106.99   110.74   -60.35
           1 O1       5 C4       6 C5      13 H12       106.99   110.74    60.35
           1 O1       5 C4       6 C5      14 H13       106.99   109.43  -180.00
          10 H9       5 C4       6 C5      12 H11       112.46   110.74    58.36
          10 H9       5 C4       6 C5      13 H12       112.46   110.74   179.05
          10 H9       5 C4       6 C5      14 H13       112.46   109.43   -61.30
          11 H10      5 C4       6 C5      12 H11       112.46   110.74  -179.05
          11 H10      5 C4       6 C5      13 H12       112.46   110.74   -58.36
          11 H10      5 C4       6 C5      14 H13       112.46   109.43    61.30
--
 
 
            Nuclear Potential Energy            501.15257079 au
 
 
      Basis set specifications :
      Symmetry species         a  
      Basis functions          167
 
 
  Input file to MOLDEN was generated!
 
--- Stop Module: seward at Wed Apr 13 16:39:29 2022 /rc=_RC_ALL_IS_WELL_ ---
*** files: coo_ground_opt_mull_pop.GssOrb coo_ground_opt_mull_pop.guessorb.h5 coo_ground_opt_mull_pop.guessorb.molden xmldump
    saved to directory /home/oxygen16/FOUDAAE/ESCA_Molecule/auger/electronic_structure/COO/ANO-RCC/triple_zeta/new/ground_opt/mull_pop
--- Module seward spent 12 seconds ---

*** symbolic link created: INPORB -> coo_ground_opt_mull_pop.GssOrb
--- Start Module: scf at Wed Apr 13 16:39:29 2022 ---
 
()()()()()()()()()()()()()()()()()()()()()()()()()()()()()()()()()()()()()()()()()()()()()()()()()()

                                                &SCF

                       only a single process is used, running in SERIAL mode
                       available to each process: 10 GB of memory, 20 threads
                                             pid: 45041
()()()()()()()()()()()()()()()()()()()()()()()()()()()()()()()()()()()()()()()()()()()()()()()()()()
 
++    Input section:
      --------------
 
      Header of the integral files:
      
       Integrals generated by Gateway/Seward, Wed Apr 13 16:39:19 2022
 
 
      Cartesian coordinates in Angstrom:
      -----------------------------------------------------
      No.  Label        X            Y            Z        
      -----------------------------------------------------
       1   O1         1.11368866   0.24469850   0.00000000
       2   O2         0.13918044  -1.80369974   0.00000000
       3   C3         0.09006257  -0.60270393   0.00000000
       4   C2        -1.23381630   0.19090638   0.00000000
       5   C4         2.42263091  -0.38478735   0.00000000
       6   C5         3.44697273   0.72617193   0.00000000
       7   F6        -2.27014795  -0.63487634   0.00000000
       8   F7        -1.31232848   0.97045645  -1.08236387
       9   F8        -1.31232848   0.97045645   1.08236387
      10   H9         2.49604740  -1.01928721  -0.88412816
      11   H10        2.49604740  -1.01928721   0.88412816
      12   H11        3.33786850   1.35208534  -0.88612854
      13   H12        3.33786850   1.35208534   0.88612854
      14   H13        4.44979154   0.29532288   0.00000000
      -----------------------------------------------------
      Nuclear repulsion energy =  501.15257079
--
 
++    Orbital specifications:
      -----------------------
 
      Symmetry species               1
                                     a
      Frozen orbitals                0
      Occupied orbitals             36
      Secondary orbitals           131
      Deleted orbitals               0
      Total number of orbitals     167
      Number of basis functions    167
--
 
      Molecular charge                           0.000
 
++    Optimization specifications:
      ----------------------------
 
      SCF Algorithm: LK-RI/DF
      The actual AO density is used
      Number of density matrices in core                5
      Maximum number of NDDO SCF iterations           400
      Maximum number of HF SCF iterations             400
      Threshold for SCF energy change            0.10E-08
      Threshold for density matrix               0.10E-03
      Threshold for Fock matrix                  0.15E-03
      Threshold for linear dependence            0.10E-08
      Threshold at which DIIS is turned on       0.15E+00
      Threshold at which QNR/C2DIIS is turned on 0.75E-01
      Threshold for Norm(delta) (QNR/C2DIIS)     0.20E-04
      DIIS extrapolation of the SCF procedure
      All orbitals punched on: SCFORB
--
 
      Input vectors read from INPORB
      Orbital file label: *Guess orbitals
 
 
++ Convergence information
                                   SCF        iterations: Energy and convergence statistics
 
Iter     Tot. SCF        One-elec.       Two-elec.     Energy      Max Dij or  Max Fij      DNorm      TNorm      AccCon     Time
         Energy          Energy          Energy        Change      Delta Norm                                                in Sec.
   1  -601.309255953 -1819.864937271   717.403110529   0.00E+00    0.36E+00*   0.16E+00*    0.12E+02   0.30E+03   None        31.
   2  -602.164581457 -1830.600337037   727.283184792  -0.86E+00*   0.34E+00*   0.12E+00*    0.14E+02   0.31E+03   EDIIS       41.
   3  -602.341587399 -1828.490296117   724.996137930  -0.18E+00*   0.11E+00*   0.69E-01*    0.14E+02   0.31E+03   EDIIS       32.
   4  -602.481924614 -1828.193603186   724.559107784  -0.14E+00*   0.84E-01*   0.32E-01*    0.14E+02   0.31E+03   EDIIS       32.
   5  -602.487400968 -1828.602769162   724.962797406  -0.55E-02*   0.15E-01*   0.14E-01*    0.14E+02   0.31E+03   EDIIS       30.
   6  -602.496336042 -1828.487913551   724.839006720  -0.89E-02*   0.20E-02*   0.20E-02*    0.14E+02   0.31E+03   c2DIIS      34.
   7  -602.496582857 -1828.460541648   724.811388003  -0.25E-03*   0.22E-02*   0.52E-03*    0.14E+02   0.31E+03   QNRc2DIIS   36.
   8  -602.496591068 -1828.489745105   724.840583248  -0.82E-05*   0.87E-03*   0.27E-03*    0.14E+02   0.31E+03   QNRc2DIIS   36.
   9  -602.496594426 -1828.480831561   724.831666346  -0.34E-05*   0.39E-03*   0.63E-04     0.14E+02   0.31E+03   QNRc2DIIS   41.
  10  -602.496594710 -1828.479184387   724.830018889  -0.28E-06*   0.82E-04*   0.28E-04     0.14E+02   0.31E+03   QNRc2DIIS   33.
  11  -602.496594743 -1828.479612737   724.830447206  -0.33E-07*   0.39E-04*   0.11E-04     0.14E+02   0.31E+03   QNRc2DIIS   37.
  12  -602.496594705 -1828.479779986   724.830614493   0.38E-07*   0.73E-05    0.17E-05     0.14E+02   0.31E+03   QNRc2DIIS   37.
  13  -602.496594703 -1828.479721227   724.830555735   0.20E-08*   0.27E-05    0.73E-06     0.14E+02   0.31E+03   QNRc2DIIS   37.
  14  -602.496594700 -1828.479723894   724.830558406   0.37E-08*   0.22E-05    0.36E-06     0.14E+02   0.31E+03   QNRc2DIIS   45.
  15  -602.496594702 -1828.479722754   724.830557264  -0.21E-08*   0.41E-06    0.10E-06     0.14E+02   0.31E+03   QNRc2DIIS   41.
  16  -602.496594703 -1828.479719954   724.830554463  -0.87E-09    0.24E-06    0.36E-07     0.14E+02   0.31E+03   QNRc2DIIS   38.
 
       Convergence after 16 Macro Iterations
--
 
 *****************************************************************************************************************************
 *                                                                                                                           *
 *                                             SCF/KS-DFT Program, Final results                                             *
 *                                                                                                                           *
 *                                                                                                                           *
 *                                                                                                                           *
 *                                                       Final Results                                                       *
 *                                                                                                                           *
 *****************************************************************************************************************************
 
::    Total SCF energy                               -602.4965947026
      One-electron energy                           -1828.4797199538
      Two-electron energy                             724.8305544629
      Nuclear repulsion energy                        501.1525707883
      Kinetic energy (interpolated)                   602.0428878164
      Virial theorem                                    1.0007536122
      Total spin, S(S+1)                                0.0000000000
      Total spin, S                                     0.0000000000
      Max non-diagonal density matrix element           0.0000001908
      Max non-diagonal Fock matrix element              0.0000000345
 
 
      All orbitals with orbital energies smaller than  E(LUMO)+0.5 are printed
 
++    Molecular orbitals:
      -------------------
 
      Title: SCF orbitals

      Molecular orbitals for symmetry species 1: a  
 
          Orbital            1         2         3         4         5         6         7         8         9        10    
          Energy          -26.3555  -26.3555  -26.3532  -20.6367  -20.5898  -11.5274  -11.4188  -11.3171  -11.2472   -1.7504
          Occ. No.          2.0000    2.0000    2.0000    2.0000    2.0000    2.0000    2.0000    2.0000    2.0000    2.0000
 
        1 O1     1s        -0.0000    0.0000    0.0000    1.0009    0.0004    0.0000   -0.0001    0.0002    0.0000   -0.0005
        2 O1     2s        -0.0000    0.0001    0.0000    0.0044    0.0001    0.0000    0.0004    0.0010   -0.0000    0.0208
        3 O1     *s         0.0000   -0.0001   -0.0005   -0.0055   -0.0005   -0.0005    0.0012   -0.0015   -0.0004   -0.0005
        4 O1     2px        0.0000   -0.0001    0.0001   -0.0004    0.0001    0.0001   -0.0005    0.0004   -0.0001   -0.0055
        5 O1     *px       -0.0000    0.0007    0.0000   -0.0004   -0.0005   -0.0003   -0.0004   -0.0004    0.0006   -0.0035
        6 O1     2py       -0.0000    0.0001   -0.0000   -0.0024   -0.0001    0.0001   -0.0004   -0.0002   -0.0000   -0.0026
        7 O1     *py        0.0000   -0.0001    0.0002    0.0025    0.0008    0.0000   -0.0005    0.0011    0.0004   -0.0008
        8 O1     2pz       -0.0000   -0.0000   -0.0000    0.0000   -0.0000   -0.0000   -0.0000    0.0000   -0.0000    0.0000
        9 O1     *pz       -0.0001   -0.0000    0.0000   -0.0000    0.0000   -0.0000    0.0000   -0.0000    0.0000    0.0000
       10 O1     *d2-       0.0000   -0.0000   -0.0000    0.0002    0.0000   -0.0000   -0.0000    0.0001   -0.0000    0.0006
       11 O1     *d1-       0.0000    0.0000    0.0000    0.0000    0.0000    0.0000   -0.0000    0.0000    0.0000   -0.0000
       12 O1     *d0       -0.0000    0.0000    0.0000   -0.0000    0.0000   -0.0000   -0.0000    0.0002    0.0000   -0.0004
       13 O1     *d1+       0.0000    0.0000   -0.0000    0.0000    0.0000   -0.0000   -0.0000    0.0000    0.0000   -0.0000
       14 O1     *d2+       0.0000   -0.0000   -0.0000   -0.0000    0.0000    0.0001    0.0000   -0.0001    0.0000    0.0004
       15 O2     1s         0.0000   -0.0000   -0.0000   -0.0003    1.0010   -0.0001   -0.0003    0.0000    0.0000   -0.0003
       16 O2     2s         0.0000   -0.0001   -0.0001    0.0002    0.0044   -0.0003    0.0004    0.0001    0.0000    0.0176
       17 O2     *s        -0.0000    0.0001   -0.0001   -0.0002   -0.0032   -0.0000    0.0002    0.0004    0.0000   -0.0023
       18 O2     2px       -0.0000    0.0000    0.0001    0.0000   -0.0001   -0.0001   -0.0000    0.0000   -0.0000   -0.0035
       19 O2     *px        0.0000   -0.0002   -0.0002   -0.0005   -0.0000    0.0008   -0.0001   -0.0003    0.0000    0.0057
       20 O2     2py        0.0000   -0.0000   -0.0000    0.0001    0.0035   -0.0001    0.0006    0.0001    0.0000    0.0067
       21 O2     *py       -0.0000    0.0001   -0.0001   -0.0003   -0.0019   -0.0002    0.0001    0.0002    0.0001   -0.0022
       22 O2     2pz       -0.0000   -0.0000   -0.0000    0.0000    0.0000   -0.0000   -0.0000    0.0000    0.0000   -0.0000
       23 O2     *pz        0.0002    0.0000    0.0000    0.0000   -0.0000    0.0000    0.0000   -0.0000   -0.0000    0.0000
       24 O2     *d2-       0.0000   -0.0000    0.0000   -0.0000   -0.0000    0.0001   -0.0000   -0.0000   -0.0000    0.0001
       25 O2     *d1-       0.0000    0.0000    0.0000    0.0000    0.0000   -0.0000   -0.0000   -0.0000   -0.0000   -0.0000
       26 O2     *d0        0.0000   -0.0000    0.0000    0.0000   -0.0004    0.0000    0.0000   -0.0000   -0.0000   -0.0002
       27 O2     *d1+      -0.0000   -0.0000   -0.0000   -0.0000   -0.0000   -0.0000    0.0000    0.0000   -0.0000    0.0000
       28 O2     *d2+      -0.0000    0.0000   -0.0000   -0.0000   -0.0004    0.0000    0.0000   -0.0000   -0.0000   -0.0004
       29 C3     1s         0.0000   -0.0002   -0.0001   -0.0001   -0.0007    0.0027    0.9989    0.0001    0.0001    0.0026
       30 C3     2s         0.0000   -0.0006   -0.0003   -0.0003   -0.0022    0.0006   -0.0004    0.0000    0.0005    0.0623
       31 C3     *s        -0.0000    0.0003    0.0001    0.0005    0.0011   -0.0002    0.0017   -0.0001   -0.0001   -0.0071
       32 C3     *s         0.0000   -0.0017   -0.0012    0.0013    0.0018    0.0063   -0.0016    0.0007   -0.0001    0.0447
       33 C3     2px        0.0000   -0.0003   -0.0003    0.0006    0.0000   -0.0001    0.0014   -0.0003   -0.0001   -0.0123
       34 C3     *px       -0.0000    0.0009    0.0008   -0.0004   -0.0000   -0.0006   -0.0012    0.0006    0.0004   -0.0248
       35 C3     *px       -0.0000    0.0012    0.0020    0.0004    0.0002   -0.0050    0.0001    0.0020    0.0004   -0.0419
       36 C3     2py       -0.0000    0.0002    0.0001    0.0006   -0.0011    0.0001    0.0016   -0.0002   -0.0001    0.0077
       37 C3     *py        0.0000   -0.0004   -0.0003   -0.0008    0.0025    0.0001   -0.0019    0.0006    0.0004    0.0131
       38 C3     *py        0.0000   -0.0008   -0.0002    0.0007   -0.0016    0.0023   -0.0007    0.0003   -0.0001    0.0183
       39 C3     2pz        0.0001    0.0000    0.0000   -0.0000    0.0000    0.0000    0.0000    0.0000    0.0000    0.0000
       40 C3     *pz       -0.0002   -0.0000   -0.0000    0.0000   -0.0000   -0.0000   -0.0000   -0.0000    0.0000   -0.0000
       41 C3     *pz       -0.0006   -0.0000   -0.0000    0.0000   -0.0000   -0.0000   -0.0000    0.0000   -0.0000    0.0000
       42 C3     *d2-      -0.0000    0.0000   -0.0000   -0.0001    0.0000   -0.0000    0.0001    0.0000    0.0000   -0.0027
       43 C3     *d2-      -0.0000    0.0003    0.0003   -0.0007    0.0002   -0.0003   -0.0003    0.0001    0.0001   -0.0121
       44 C3     *d1-      -0.0001   -0.0000    0.0000   -0.0000    0.0000   -0.0000   -0.0000    0.0000    0.0000    0.0000
       45 C3     *d1-       0.0002    0.0000   -0.0000    0.0000    0.0000    0.0000   -0.0000    0.0000   -0.0000   -0.0000
       46 C3     *d0        0.0000   -0.0000    0.0001    0.0001    0.0004    0.0000   -0.0005   -0.0000    0.0000   -0.0026
       47 C3     *d0       -0.0000    0.0002   -0.0001    0.0002    0.0004   -0.0005    0.0003   -0.0001   -0.0001   -0.0080
       48 C3     *d1+      -0.0001   -0.0000   -0.0000   -0.0000   -0.0000   -0.0000    0.0000    0.0000   -0.0000    0.0000
       49 C3     *d1+       0.0003    0.0000    0.0000    0.0000    0.0000    0.0000   -0.0000   -0.0000    0.0000   -0.0000
       50 C3     *d2+      -0.0000    0.0000    0.0000   -0.0000    0.0004   -0.0000   -0.0004   -0.0000    0.0000    0.0011
       51 C3     *d2+       0.0000   -0.0002   -0.0003    0.0001    0.0015    0.0002   -0.0001    0.0007    0.0000    0.0067
       52 C3     *f3-       0.0000   -0.0000   -0.0000   -0.0005   -0.0007    0.0003    0.0005   -0.0000    0.0000    0.0027
       53 C3     *f2-      -0.0000   -0.0000    0.0000    0.0000   -0.0000   -0.0000    0.0000    0.0000    0.0000   -0.0000
       54 C3     *f1-      -0.0000    0.0000   -0.0000    0.0002   -0.0006   -0.0000    0.0001   -0.0000   -0.0000   -0.0010
       55 C3     *f0        0.0000    0.0000    0.0000   -0.0000    0.0000   -0.0000   -0.0000   -0.0000   -0.0000    0.0000
       56 C3     *f1+       0.0000   -0.0000    0.0000    0.0003    0.0000    0.0001   -0.0000   -0.0001   -0.0000    0.0015
       57 C3     *f2+      -0.0000   -0.0000    0.0000    0.0000    0.0000    0.0000   -0.0000    0.0000   -0.0000   -0.0000
       58 C3     *f3+       0.0000   -0.0000   -0.0000    0.0002    0.0001    0.0001   -0.0001    0.0000   -0.0000    0.0005
       59 C2     1s         0.0000   -0.0003   -0.0002   -0.0000   -0.0000    1.0015   -0.0027   -0.0000   -0.0000   -0.0010
       60 C2     2s         0.0000   -0.0007   -0.0005   -0.0000   -0.0001    0.0072    0.0001   -0.0001   -0.0001    0.4111
       61 C2     *s        -0.0000    0.0070    0.0056   -0.0005    0.0002   -0.0131    0.0016    0.0008    0.0006   -0.3225
       62 C2     2px        0.0000   -0.0001   -0.0004   -0.0001   -0.0000   -0.0017    0.0005    0.0001   -0.0000   -0.0836
       63 C2     *px       -0.0000    0.0011   -0.0005   -0.0004    0.0003   -0.0023    0.0004   -0.0004    0.0002    0.0067
       64 C2     2py       -0.0000    0.0005   -0.0003    0.0000    0.0001    0.0011   -0.0003    0.0001   -0.0000    0.0455
       65 C2     *py       -0.0000    0.0007   -0.0018   -0.0004    0.0008    0.0017   -0.0004   -0.0008   -0.0001    0.0005
       66 C2     2pz        0.0007    0.0000    0.0000    0.0000    0.0000    0.0000   -0.0000    0.0000   -0.0000   -0.0000
       67 C2     *pz        0.0020    0.0000    0.0000    0.0000    0.0000    0.0000   -0.0000   -0.0000    0.0000   -0.0000
       68 C2     *d2-       0.0000   -0.0001   -0.0000   -0.0000    0.0001    0.0004    0.0000    0.0001   -0.0000    0.0161
       69 C2     *d1-       0.0000    0.0000    0.0000    0.0000    0.0000    0.0000   -0.0000    0.0000    0.0000   -0.0000
       70 C2     *d0        0.0000   -0.0000   -0.0001   -0.0000   -0.0000    0.0003   -0.0001   -0.0001   -0.0000    0.0098
       71 C2     *d1+      -0.0000   -0.0000    0.0000   -0.0000   -0.0000   -0.0000    0.0000   -0.0000   -0.0000   -0.0000
       72 C2     *d2+       0.0000   -0.0000    0.0001   -0.0000    0.0001   -0.0002    0.0001    0.0001    0.0000   -0.0078
       73 C4     1s         0.0000   -0.0000    0.0000   -0.0000    0.0000   -0.0000   -0.0001    1.0016   -0.0047   -0.0001
       74 C4     2s         0.0000   -0.0001    0.0001   -0.0001    0.0001   -0.0002   -0.0001    0.0089   -0.0001    0.0025
       75 C4     *s         0.0000   -0.0003   -0.0002    0.0025    0.0005    0.0005   -0.0002   -0.0109    0.0023    0.0002
       76 C4     2px       -0.0000    0.0001   -0.0001   -0.0005   -0.0002    0.0000    0.0001   -0.0016    0.0001   -0.0014
       77 C4     *px       -0.0000    0.0002    0.0004   -0.0004    0.0000   -0.0013    0.0002    0.0013    0.0010   -0.0073
       78 C4     2py        0.0000   -0.0001    0.0000    0.0002    0.0001    0.0001   -0.0000    0.0004    0.0001    0.0011
       79 C4     *py       -0.0000   -0.0000    0.0001    0.0004    0.0001   -0.0006   -0.0001   -0.0003    0.0008   -0.0030
       80 C4     2pz       -0.0000   -0.0000   -0.0000   -0.0000    0.0000    0.0000   -0.0000   -0.0000    0.0000   -0.0000
       81 C4     *pz        0.0001    0.0000    0.0000   -0.0000   -0.0000    0.0000    0.0000    0.0000    0.0000   -0.0000
       82 C4     *d2-      -0.0000    0.0001    0.0000    0.0001   -0.0001   -0.0001    0.0000   -0.0000   -0.0002   -0.0010
       83 C4     *d1-       0.0000    0.0000   -0.0000    0.0000   -0.0000   -0.0000    0.0000    0.0000    0.0000    0.0000
       84 C4     *d0       -0.0000    0.0000   -0.0000    0.0001    0.0000   -0.0000   -0.0000    0.0002    0.0002   -0.0002
       85 C4     *d1+      -0.0000   -0.0000    0.0000   -0.0000    0.0000    0.0000    0.0000    0.0000    0.0000   -0.0000
       86 C4     *d2+       0.0000   -0.0000    0.0000    0.0001   -0.0000    0.0000   -0.0001   -0.0001    0.0000    0.0002
       87 C5     1s        -0.0000    0.0000    0.0000    0.0000    0.0000   -0.0001   -0.0001    0.0045    1.0018   -0.0004
       88 C5     2s        -0.0000    0.0000    0.0001    0.0000    0.0000   -0.0002   -0.0002   -0.0000    0.0102   -0.0010
       89 C5     *s         0.0000   -0.0001   -0.0003   -0.0006   -0.0003    0.0011    0.0004    0.0015   -0.0127    0.0068
       90 C5     2px        0.0000   -0.0000    0.0000    0.0001   -0.0000   -0.0000    0.0000   -0.0001    0.0001   -0.0004
       91 C5     *px       -0.0000    0.0000    0.0001    0.0002    0.0000   -0.0002   -0.0003   -0.0006    0.0008   -0.0017
       92 C5     2py       -0.0000    0.0000    0.0000    0.0001   -0.0000   -0.0000    0.0000   -0.0001   -0.0000   -0.0005
       93 C5     *py        0.0000   -0.0000    0.0001    0.0001   -0.0000   -0.0003    0.0001   -0.0004    0.0007   -0.0016
       94 C5     2pz        0.0000    0.0000    0.0000    0.0000    0.0000   -0.0000    0.0000   -0.0000    0.0000   -0.0000
       95 C5     *pz       -0.0001   -0.0000   -0.0000    0.0000   -0.0000   -0.0000   -0.0000   -0.0000   -0.0000    0.0000
       96 C5     *d2-       0.0000   -0.0000   -0.0000   -0.0001    0.0000    0.0000   -0.0000   -0.0001   -0.0002    0.0003
       97 C5     *d1-       0.0000    0.0000   -0.0000    0.0000    0.0000   -0.0000   -0.0000   -0.0000    0.0000   -0.0000
       98 C5     *d0       -0.0000    0.0000    0.0000   -0.0000   -0.0000   -0.0000   -0.0000    0.0000    0.0001   -0.0002
       99 C5     *d1+       0.0000    0.0000    0.0000   -0.0000   -0.0000    0.0000    0.0000    0.0000   -0.0000    0.0000
      100 C5     *d2+       0.0000   -0.0000    0.0000    0.0000   -0.0000   -0.0000    0.0000   -0.0000    0.0000   -0.0001
      101 F6     1s         0.0000   -0.0053    1.0006    0.0000   -0.0000   -0.0000    0.0000    0.0001    0.0000   -0.0054
      102 F6     2s        -0.0000    0.0004    0.0028    0.0000   -0.0001    0.0004    0.0001    0.0002    0.0000    0.4902
      103 F6     *s         0.0000   -0.0010   -0.0049   -0.0001    0.0004   -0.0001   -0.0004   -0.0006   -0.0001    0.0098
      104 F6     2px        0.0000   -0.0000    0.0013   -0.0000    0.0000    0.0004   -0.0001   -0.0000    0.0000    0.0636
      105 F6     *px        0.0000   -0.0002   -0.0019    0.0001   -0.0000   -0.0004   -0.0001   -0.0001   -0.0000   -0.0011
      106 F6     2py        0.0000   -0.0000    0.0010    0.0000   -0.0000    0.0003   -0.0000    0.0000   -0.0000    0.0598
      107 F6     *py        0.0000   -0.0004   -0.0015   -0.0001    0.0000   -0.0005   -0.0000   -0.0002   -0.0000   -0.0025
      108 F6     2pz        0.0001    0.0000    0.0000    0.0000    0.0000    0.0000   -0.0000   -0.0000    0.0000    0.0000
      109 F6     *pz       -0.0005   -0.0000   -0.0000   -0.0000   -0.0000   -0.0000    0.0000    0.0000   -0.0000    0.0000
      110 F6     *d2-       0.0000   -0.0000   -0.0002    0.0000   -0.0000   -0.0000   -0.0000   -0.0000   -0.0000    0.0068
      111 F6     *d1-      -0.0000   -0.0000    0.0000   -0.0000   -0.0000   -0.0000   -0.0000    0.0000   -0.0000   -0.0000
      112 F6     *d0       -0.0000    0.0000    0.0001   -0.0000    0.0000    0.0001    0.0000    0.0000    0.0000   -0.0038
      113 F6     *d1+      -0.0000   -0.0000    0.0000   -0.0000   -0.0000   -0.0000   -0.0000    0.0000    0.0000    0.0000
      114 F6     *d2+      -0.0000    0.0000   -0.0000   -0.0000    0.0000    0.0000   -0.0000   -0.0000   -0.0000    0.0007
      115 F7     1s        -0.7075    0.7076    0.0039   -0.0000   -0.0000   -0.0000    0.0000   -0.0000    0.0000   -0.0055
      116 F7     2s        -0.0017    0.0022    0.0003   -0.0000   -0.0000    0.0005    0.0001   -0.0001    0.0000    0.4799
      117 F7     *s         0.0027   -0.0039   -0.0008    0.0001    0.0000   -0.0002   -0.0003    0.0003   -0.0001    0.0114
      118 F7     2px       -0.0001    0.0001   -0.0000    0.0000   -0.0000    0.0000   -0.0000   -0.0000    0.0000   -0.0010
      119 F7     *px        0.0001   -0.0002    0.0002   -0.0001    0.0001    0.0001   -0.0001    0.0001   -0.0000    0.0018
      120 F7     2py        0.0007   -0.0006   -0.0000   -0.0000    0.0000   -0.0003    0.0000   -0.0000    0.0000   -0.0472
      121 F7     *py       -0.0011    0.0009    0.0004    0.0001   -0.0001    0.0003    0.0001    0.0001    0.0000   -0.0003
      122 F7     2pz       -0.0009    0.0009   -0.0000   -0.0000    0.0000    0.0004   -0.0000   -0.0000    0.0000    0.0698
      123 F7     *pz        0.0010   -0.0017   -0.0001    0.0001   -0.0001   -0.0006   -0.0000    0.0001   -0.0000   -0.0018
      124 F7     *d2-      -0.0000    0.0000   -0.0000    0.0000   -0.0000    0.0000    0.0000   -0.0000   -0.0000   -0.0001
      125 F7     *d1-      -0.0001    0.0001    0.0000    0.0000   -0.0000    0.0001    0.0000    0.0000   -0.0000   -0.0061
      126 F7     *d0        0.0000   -0.0001    0.0000    0.0000   -0.0000   -0.0000    0.0000    0.0000   -0.0000    0.0040
      127 F7     *d1+       0.0000   -0.0000    0.0000    0.0000    0.0000    0.0000   -0.0000    0.0000   -0.0000    0.0000
      128 F7     *d2+      -0.0001    0.0000    0.0000   -0.0000    0.0000    0.0000    0.0000   -0.0000    0.0000   -0.0021
      129 F8     1s         0.7075    0.7076    0.0039   -0.0000   -0.0000   -0.0000    0.0000   -0.0000    0.0000   -0.0055
      130 F8     2s         0.0017    0.0022    0.0003   -0.0000   -0.0000    0.0005    0.0001   -0.0001    0.0000    0.4799
      131 F8     *s        -0.0027   -0.0039   -0.0008    0.0001    0.0000   -0.0002   -0.0003    0.0003   -0.0001    0.0114
      132 F8     2px        0.0001    0.0001   -0.0000    0.0000   -0.0000    0.0000   -0.0000   -0.0000    0.0000   -0.0010
      133 F8     *px       -0.0001   -0.0002    0.0002   -0.0001    0.0001    0.0001   -0.0001    0.0001   -0.0000    0.0018
      134 F8     2py       -0.0007   -0.0006   -0.0000   -0.0000    0.0000   -0.0003    0.0000   -0.0000    0.0000   -0.0472
      135 F8     *py        0.0011    0.0009    0.0004    0.0001   -0.0001    0.0003    0.0001    0.0001    0.0000   -0.0003
      136 F8     2pz       -0.0009   -0.0009    0.0000    0.0000   -0.0000   -0.0004    0.0000    0.0000   -0.0000   -0.0698
      137 F8     *pz        0.0010    0.0017    0.0001   -0.0001    0.0001    0.0006    0.0000   -0.0001    0.0000    0.0018
      138 F8     *d2-       0.0000    0.0000   -0.0000    0.0000   -0.0000    0.0000    0.0000   -0.0000   -0.0000   -0.0001
      139 F8     *d1-      -0.0001   -0.0001   -0.0000   -0.0000    0.0000   -0.0001   -0.0000   -0.0000    0.0000    0.0061
      140 F8     *d0       -0.0000   -0.0001    0.0000    0.0000   -0.0000   -0.0000    0.0000    0.0000   -0.0000    0.0040
      141 F8     *d1+       0.0000    0.0000   -0.0000   -0.0000   -0.0000   -0.0000    0.0000   -0.0000    0.0000   -0.0000
      142 F8     *d2+       0.0001    0.0000    0.0000   -0.0000    0.0000    0.0000    0.0000   -0.0000    0.0000   -0.0021
      143 H9     1s         0.0001    0.0000    0.0000   -0.0005   -0.0001   -0.0001   -0.0000    0.0005   -0.0002    0.0001
      144 H9     *s        -0.0001   -0.0001   -0.0001    0.0001   -0.0001    0.0003   -0.0001    0.0009    0.0002    0.0024
      145 H9     *px        0.0000    0.0000    0.0000    0.0001    0.0000   -0.0000    0.0000    0.0000    0.0000   -0.0003
      146 H9     *py        0.0000    0.0000   -0.0000   -0.0001   -0.0000    0.0000    0.0000   -0.0002    0.0000    0.0001
      147 H9     *pz       -0.0000    0.0000   -0.0000   -0.0000   -0.0000   -0.0000   -0.0000   -0.0002    0.0000    0.0001
      148 H10    1s        -0.0001    0.0000    0.0000   -0.0005   -0.0001   -0.0001   -0.0000    0.0005   -0.0002    0.0001
      149 H10    *s         0.0001   -0.0001   -0.0001    0.0001   -0.0001    0.0003   -0.0001    0.0009    0.0002    0.0024
      150 H10    *px       -0.0000    0.0000    0.0000    0.0001    0.0000   -0.0000    0.0000    0.0000    0.0000   -0.0003
      151 H10    *py       -0.0000    0.0000   -0.0000   -0.0001   -0.0000    0.0000    0.0000   -0.0002    0.0000    0.0001
      152 H10    *pz       -0.0000   -0.0000    0.0000    0.0000    0.0000    0.0000    0.0000    0.0002   -0.0000   -0.0001
      153 H11    1s        -0.0000    0.0000    0.0000    0.0001    0.0000   -0.0001   -0.0001   -0.0001    0.0003   -0.0004
      154 H11    *s        -0.0000    0.0000   -0.0000   -0.0001    0.0000   -0.0000   -0.0000    0.0002    0.0012   -0.0002
      155 H11    *px       -0.0000   -0.0000   -0.0000    0.0000    0.0000    0.0000    0.0000   -0.0000   -0.0001    0.0001
      156 H11    *py        0.0000   -0.0000   -0.0000    0.0000   -0.0000    0.0000   -0.0000   -0.0001    0.0002    0.0001
      157 H11    *pz        0.0000    0.0000    0.0000    0.0000    0.0000   -0.0000   -0.0000    0.0000   -0.0003   -0.0001
      158 H12    1s         0.0000    0.0000    0.0000    0.0001    0.0000   -0.0001   -0.0001   -0.0001    0.0003   -0.0004
      159 H12    *s         0.0000    0.0000   -0.0000   -0.0001    0.0000   -0.0000   -0.0000    0.0002    0.0012   -0.0002
      160 H12    *px        0.0000   -0.0000   -0.0000    0.0000    0.0000    0.0000    0.0000   -0.0000   -0.0001    0.0001
      161 H12    *py       -0.0000   -0.0000   -0.0000    0.0000   -0.0000    0.0000   -0.0000   -0.0001    0.0002    0.0001
      162 H12    *pz        0.0000   -0.0000   -0.0000   -0.0000   -0.0000    0.0000    0.0000   -0.0000    0.0003    0.0001
      163 H13    1s        -0.0000    0.0000    0.0000   -0.0001    0.0000   -0.0001    0.0000   -0.0001    0.0001   -0.0002
      164 H13    *s         0.0000   -0.0000   -0.0000    0.0002    0.0000    0.0000    0.0001    0.0001    0.0011    0.0004
      165 H13    *px       -0.0000    0.0000    0.0000   -0.0000   -0.0000   -0.0000    0.0000   -0.0000    0.0004   -0.0001
      166 H13    *py       -0.0000    0.0000    0.0000   -0.0000    0.0000   -0.0000    0.0000   -0.0000   -0.0002   -0.0001
      167 H13    *pz        0.0000    0.0000    0.0000   -0.0000    0.0000    0.0000    0.0000    0.0000    0.0000   -0.0000
 
          Orbital           11        12        13        14        15        16        17        18        19        20    
          Energy           -1.6522   -1.6518   -1.4973   -1.3998   -1.0782   -1.0173   -0.9125   -0.8582   -0.8380   -0.8350
          Occ. No.          2.0000    2.0000    2.0000    2.0000    2.0000    2.0000    2.0000    2.0000    2.0000    2.0000
 
        1 O1     1s         0.0002    0.0000   -0.0096   -0.0069   -0.0007   -0.0010    0.0023   -0.0017    0.0000   -0.0019
        2 O1     2s         0.0165    0.0000    0.6418    0.5107   -0.0507   -0.1593   -0.0462   -0.1431    0.0000   -0.1051
        3 O1     *s        -0.0130   -0.0000   -0.0478   -0.0206    0.0175    0.0170   -0.0461    0.0065   -0.0000    0.0009
        4 O1     2px       -0.0029   -0.0000   -0.0346    0.0051    0.2705   -0.0055   -0.2715    0.1469    0.0000   -0.0158
        5 O1     *px        0.0063    0.0000    0.0280    0.0041   -0.0354   -0.0088    0.0363   -0.0092    0.0000   -0.0080
        6 O1     2py       -0.0007   -0.0000   -0.1073   -0.0433    0.0081    0.0279    0.0188   -0.0633    0.0000   -0.0491
        7 O1     *py        0.0008    0.0000    0.0193    0.0101   -0.0155   -0.0149    0.0116   -0.0148    0.0000   -0.0003
        8 O1     2pz       -0.0000    0.0019   -0.0000   -0.0000    0.0000    0.0000    0.0000    0.0000    0.0452    0.0000
        9 O1     *pz       -0.0000    0.0019    0.0000    0.0000   -0.0000   -0.0000   -0.0000    0.0000   -0.0021   -0.0000
       10 O1     *d2-       0.0002    0.0000    0.0025    0.0005   -0.0127   -0.0007    0.0116   -0.0088   -0.0000   -0.0006
       11 O1     *d1-       0.0000   -0.0001   -0.0000    0.0000    0.0000   -0.0000   -0.0000   -0.0000   -0.0017   -0.0000
       12 O1     *d0       -0.0001   -0.0000   -0.0069   -0.0050   -0.0013   -0.0008    0.0011   -0.0022    0.0000   -0.0016
       13 O1     *d1+       0.0000   -0.0005   -0.0000   -0.0000    0.0000   -0.0000   -0.0000    0.0000   -0.0011   -0.0000
       14 O1     *d2+      -0.0004   -0.0000    0.0018    0.0041    0.0018    0.0039    0.0007    0.0017    0.0000   -0.0006
       15 O2     1s         0.0005    0.0000   -0.0072    0.0089   -0.0011    0.0007    0.0002   -0.0002    0.0000    0.0000
       16 O2     2s        -0.0115   -0.0000    0.4201   -0.6796    0.1344   -0.1075   -0.0977   -0.1228    0.0000    0.0107
       17 O2     *s        -0.0061   -0.0000   -0.0621    0.0896   -0.0143    0.0033   -0.0129   -0.0109   -0.0000   -0.0125
       18 O2     2px        0.0034    0.0000    0.0088    0.0191    0.0192   -0.0565   -0.0353   -0.0712   -0.0000    0.0325
       19 O2     *px        0.0009    0.0000    0.0046   -0.0023    0.0026    0.0004    0.0078    0.0069    0.0000   -0.0075
       20 O2     2py       -0.0039   -0.0000    0.1220   -0.1576   -0.0183    0.0190    0.0492    0.0597    0.0000   -0.0161
       21 O2     *py       -0.0015   -0.0000   -0.0411    0.0590   -0.0087    0.0100   -0.0051   -0.0067   -0.0000   -0.0000
       22 O2     2pz       -0.0000    0.0017    0.0000   -0.0000    0.0000    0.0000    0.0000    0.0000    0.0422    0.0000
       23 O2     *pz        0.0000   -0.0027    0.0000   -0.0000    0.0000   -0.0000   -0.0000   -0.0000   -0.0038   -0.0000
       24 O2     *d2-       0.0007    0.0000    0.0010    0.0022    0.0015   -0.0036   -0.0017   -0.0038    0.0000    0.0010
       25 O2     *d1-      -0.0000    0.0001    0.0000   -0.0000    0.0000   -0.0000    0.0000    0.0000    0.0020    0.0000
       26 O2     *d0        0.0003    0.0000   -0.0046    0.0066   -0.0002   -0.0004   -0.0005   -0.0009    0.0000    0.0003
       27 O2     *d1+      -0.0000    0.0002   -0.0000   -0.0000    0.0000   -0.0000   -0.0000   -0.0000    0.0000    0.0000
       28 O2     *d2+      -0.0001   -0.0000   -0.0074    0.0110    0.0004   -0.0006   -0.0013   -0.0009    0.0000    0.0004
       29 C3     1s         0.0004    0.0000   -0.0149    0.0073   -0.0032    0.0043   -0.0009   -0.0033   -0.0000   -0.0002
       30 C3     2s         0.0006    0.0000    0.4478   -0.1912   -0.3049    0.1958    0.2707    0.1026   -0.0000    0.0213
       31 C3     *s        -0.0011   -0.0000   -0.0079   -0.0012    0.0055   -0.0035   -0.0012    0.0020   -0.0000   -0.0008
       32 C3     *s         0.0180    0.0000   -0.1448    0.0533    0.1219   -0.1229   -0.0399   -0.0212    0.0000   -0.0105
       33 C3     2px        0.0054    0.0000    0.1227    0.0941    0.0312   -0.2193   -0.0308   -0.2112    0.0000    0.0046
       34 C3     *px        0.0027    0.0000   -0.0047   -0.0056    0.0055   -0.0165    0.0161    0.0002   -0.0000   -0.0003
       35 C3     *px        0.0035   -0.0000   -0.0456   -0.0364   -0.0298    0.1202    0.0026    0.0423   -0.0000    0.0029
       36 C3     2py        0.0126    0.0000   -0.0563    0.3492   -0.1933    0.0987    0.1395    0.0071   -0.0000    0.0390
       37 C3     *py        0.0005    0.0000    0.0129   -0.0272   -0.0059    0.0093   -0.0014   -0.0061    0.0000   -0.0019
       38 C3     *py        0.0016    0.0000    0.0196   -0.1141    0.0597   -0.0614   -0.0283    0.0158    0.0000   -0.0274
       39 C3     2pz       -0.0000    0.0070    0.0000   -0.0000    0.0000    0.0000    0.0000    0.0000    0.0710    0.0000
       40 C3     *pz       -0.0000    0.0015   -0.0000    0.0000    0.0000   -0.0000   -0.0000    0.0000    0.0089    0.0000
       41 C3     *pz       -0.0000    0.0010   -0.0000   -0.0000    0.0000    0.0000    0.0000    0.0000   -0.0125   -0.0000
       42 C3     *d2-      -0.0010   -0.0000    0.0105    0.0107   -0.0032   -0.0095    0.0050   -0.0070    0.0000   -0.0038
       43 C3     *d2-       0.0036    0.0000    0.0180    0.0154   -0.0039   -0.0216    0.0125   -0.0174   -0.0000   -0.0131
       44 C3     *d1-      -0.0000    0.0014   -0.0000    0.0000   -0.0000   -0.0000    0.0000   -0.0000    0.0019    0.0000
       45 C3     *d1-       0.0000   -0.0010   -0.0000   -0.0000    0.0000   -0.0000   -0.0000   -0.0000   -0.0008   -0.0000
       46 C3     *d0        0.0011    0.0000   -0.0159    0.0046    0.0073   -0.0030   -0.0040    0.0004    0.0000    0.0012
       47 C3     *d0       -0.0056   -0.0000   -0.0174    0.0050    0.0021    0.0021   -0.0061   -0.0002   -0.0000   -0.0070
       48 C3     *d1+       0.0000   -0.0006   -0.0000   -0.0000    0.0000    0.0000    0.0000    0.0000   -0.0014   -0.0000
       49 C3     *d1+       0.0000   -0.0050    0.0000    0.0000   -0.0000    0.0000   -0.0000    0.0000   -0.0125   -0.0000
       50 C3     *d2+      -0.0002   -0.0000   -0.0075    0.0191   -0.0031    0.0043   -0.0011    0.0044   -0.0000   -0.0011
       51 C3     *d2+      -0.0064   -0.0000   -0.0132    0.0269   -0.0090    0.0085   -0.0043    0.0112    0.0000   -0.0134
       52 C3     *f3-      -0.0006   -0.0000    0.0120   -0.0022   -0.0023    0.0002    0.0014    0.0006    0.0000   -0.0009
       53 C3     *f2-       0.0000   -0.0004    0.0000    0.0000   -0.0000    0.0000    0.0000    0.0000   -0.0005    0.0000
       54 C3     *f1-      -0.0012   -0.0000   -0.0006   -0.0060    0.0039   -0.0014   -0.0020    0.0006   -0.0000   -0.0006
       55 C3     *f0        0.0000   -0.0009    0.0000    0.0000   -0.0000   -0.0000    0.0000   -0.0000   -0.0032   -0.0000
       56 C3     *f1+       0.0004    0.0000   -0.0044   -0.0024    0.0000    0.0030   -0.0001    0.0017    0.0000    0.0006
       57 C3     *f2+      -0.0000    0.0015    0.0000   -0.0000    0.0000   -0.0000   -0.0000    0.0000    0.0012    0.0000
       58 C3     *f3+       0.0009    0.0000   -0.0035   -0.0013    0.0028    0.0020   -0.0026    0.0040   -0.0000    0.0021
       59 C2     1s         0.0007    0.0000    0.0011   -0.0002   -0.0068    0.0112   -0.0109   -0.0054    0.0000   -0.0016
       60 C2     2s         0.0004    0.0000    0.0355   -0.0134   -0.3043    0.6175   -0.2815   -0.0161    0.0000    0.0005
       61 C2     *s        -0.0049   -0.0000   -0.0097    0.0039    0.1117   -0.2045    0.1609    0.0370   -0.0000    0.0159
       62 C2     2px        0.1113    0.0000    0.0467   -0.0098   -0.1204    0.0998    0.2916    0.2137   -0.0000    0.2786
       63 C2     *px       -0.0480   -0.0000   -0.0137    0.0076    0.0275    0.0212   -0.1195   -0.0581   -0.0000   -0.1016
       64 C2     2py        0.1820    0.0000   -0.0273    0.0134    0.0529   -0.0631   -0.1327   -0.2796   -0.0000    0.3748
       65 C2     *py       -0.0753   -0.0000    0.0118    0.0035    0.0028   -0.0129    0.0465    0.0954    0.0000   -0.1502
       66 C2     2pz       -0.0000    0.2081    0.0000   -0.0000   -0.0000    0.0000    0.0000   -0.0000    0.4874    0.0000
       67 C2     *pz        0.0000   -0.0851    0.0000    0.0000   -0.0000   -0.0000   -0.0000   -0.0000   -0.1876   -0.0000
       68 C2     *d2-      -0.0269   -0.0000   -0.0036    0.0040    0.0027   -0.0015   -0.0071    0.0049    0.0000   -0.0204
       69 C2     *d1-      -0.0000    0.0401    0.0000    0.0000    0.0000   -0.0000    0.0000   -0.0000    0.0266    0.0000
       70 C2     *d0        0.0277    0.0000   -0.0017   -0.0007    0.0027   -0.0004   -0.0032   -0.0011    0.0000    0.0115
       71 C2     *d1+       0.0000   -0.0055    0.0000   -0.0000    0.0000   -0.0000    0.0000    0.0000   -0.0202   -0.0000
       72 C2     *d2+      -0.0156   -0.0000    0.0019    0.0036   -0.0042    0.0003    0.0036    0.0032   -0.0000   -0.0261
       73 C4     1s         0.0001    0.0000   -0.0055   -0.0044   -0.0125   -0.0044    0.0012   -0.0033    0.0000   -0.0022
       74 C4     2s         0.0026    0.0000    0.1560    0.1414    0.5096    0.2065   -0.2102    0.3932    0.0000    0.1728
       75 C4     *s        -0.0037   -0.0000   -0.0890   -0.0627   -0.1403   -0.0340    0.0903   -0.1234   -0.0000   -0.0381
       76 C4     2px       -0.0013   -0.0000   -0.0810   -0.0666    0.0397    0.1164    0.1555   -0.0409    0.0000    0.0218
       77 C4     *px        0.0043   -0.0000    0.0319    0.0269   -0.0055    0.0017   -0.0321    0.0076   -0.0000   -0.0075
       78 C4     2py        0.0005    0.0000    0.0332    0.0388    0.0824    0.0402    0.0541   -0.1326    0.0000   -0.0881
       79 C4     *py       -0.0008   -0.0000   -0.0162   -0.0121   -0.0205    0.0146    0.0007    0.0202   -0.0000    0.0220
       80 C4     2pz       -0.0000    0.0002   -0.0000   -0.0000   -0.0000   -0.0000    0.0000   -0.0000    0.0119   -0.0000
       81 C4     *pz        0.0000   -0.0017   -0.0000   -0.0000   -0.0000    0.0000    0.0000    0.0000   -0.0020    0.0000
       82 C4     *d2-      -0.0001   -0.0000   -0.0088   -0.0099    0.0051    0.0140    0.0203   -0.0077   -0.0000    0.0013
       83 C4     *d1-       0.0000   -0.0001    0.0000    0.0000    0.0000   -0.0000   -0.0000   -0.0000   -0.0002   -0.0000
       84 C4     *d0       -0.0001   -0.0000   -0.0098   -0.0080   -0.0120   -0.0015    0.0016    0.0059    0.0000    0.0044
       85 C4     *d1+      -0.0000    0.0001   -0.0000   -0.0000   -0.0000    0.0000    0.0000   -0.0000   -0.0014   -0.0000
       86 C4     *d2+       0.0002    0.0000    0.0117    0.0081    0.0020   -0.0074   -0.0073    0.0007   -0.0000   -0.0008
       87 C5     1s         0.0001   -0.0000   -0.0010   -0.0010   -0.0148   -0.0116   -0.0116    0.0085   -0.0000    0.0024
       88 C5     2s         0.0007   -0.0000    0.0262    0.0330    0.4225    0.3605    0.3811   -0.3121   -0.0000   -0.1006
       89 C5     *s        -0.0012    0.0000   -0.0011   -0.0112   -0.1199   -0.1268   -0.1120    0.0910    0.0000    0.0261
       90 C5     2px       -0.0003   -0.0000   -0.0163   -0.0173   -0.0714   -0.0222    0.0578   -0.0803   -0.0000   -0.0237
       91 C5     *px        0.0005   -0.0000    0.0018    0.0040    0.0264    0.0145   -0.0068    0.0139   -0.0000    0.0042
       92 C5     2py       -0.0001   -0.0000   -0.0095   -0.0105   -0.0728   -0.0375    0.0393   -0.1051    0.0000   -0.0537
       93 C5     *py        0.0006   -0.0000   -0.0007    0.0015    0.0178    0.0246    0.0002    0.0156   -0.0000    0.0104
       94 C5     2pz        0.0000   -0.0000   -0.0000   -0.0000    0.0000    0.0000    0.0000   -0.0000    0.0029   -0.0000
       95 C5     *pz       -0.0000    0.0005    0.0000    0.0000   -0.0000    0.0000    0.0000    0.0000   -0.0010    0.0000
       96 C5     *d2-       0.0001    0.0000    0.0039    0.0038    0.0125    0.0046   -0.0056    0.0098    0.0000    0.0038
       97 C5     *d1-       0.0000   -0.0001   -0.0000   -0.0000   -0.0000   -0.0000    0.0000   -0.0000   -0.0003    0.0000
       98 C5     *d0        0.0001   -0.0000   -0.0008   -0.0011   -0.0060   -0.0031    0.0016   -0.0050   -0.0000   -0.0025
       99 C5     *d1+       0.0000   -0.0001   -0.0000   -0.0000   -0.0000   -0.0000   -0.0000    0.0000   -0.0002    0.0000
      100 C5     *d2+       0.0001    0.0000    0.0012    0.0006   -0.0019   -0.0014    0.0002   -0.0027   -0.0000   -0.0017
      101 F6     1s         0.0035    0.0000    0.0001   -0.0001    0.0002   -0.0022    0.0026    0.0001   -0.0000    0.0015
      102 F6     2s        -0.7652   -0.0000   -0.0343    0.0386    0.0842   -0.2075    0.1470   -0.0084   -0.0000    0.1864
      103 F6     *s         0.0187    0.0000   -0.0008    0.0037    0.0124   -0.0205    0.0121   -0.0068    0.0000    0.0572
      104 F6     2px       -0.0621   -0.0000    0.0053   -0.0086   -0.0825    0.2250   -0.1269    0.1758    0.0000   -0.4194
      105 F6     *px        0.0115    0.0000   -0.0015   -0.0006    0.0067   -0.0135    0.0028   -0.0061    0.0000    0.0138
      106 F6     2py       -0.0412   -0.0000   -0.0060    0.0044   -0.0249    0.1161   -0.2869   -0.1989    0.0000   -0.2938
      107 F6     *py        0.0086    0.0000    0.0015    0.0000   -0.0005   -0.0016    0.0084    0.0045    0.0000    0.0147
      108 F6     2pz       -0.0000    0.0201   -0.0000   -0.0000   -0.0000   -0.0000    0.0000   -0.0000    0.3915    0.0000
      109 F6     *pz        0.0000   -0.0019   -0.0000   -0.0000    0.0000    0.0000    0.0000    0.0000   -0.0028   -0.0000
      110 F6     *d2-      -0.0047   -0.0000   -0.0003    0.0002   -0.0023    0.0073   -0.0087   -0.0016    0.0000   -0.0111
      111 F6     *d1-      -0.0000    0.0013    0.0000   -0.0000   -0.0000    0.0000   -0.0000   -0.0000    0.0065    0.0000
      112 F6     *d0        0.0028    0.0000   -0.0000    0.0003    0.0016   -0.0048    0.0046    0.0001   -0.0000    0.0065
      113 F6     *d1+      -0.0000    0.0017   -0.0000    0.0000   -0.0000    0.0000    0.0000   -0.0000    0.0085    0.0000
      114 F6     *d2+      -0.0019   -0.0000    0.0005   -0.0004   -0.0021    0.0036    0.0031    0.0076    0.0000   -0.0044
      115 F7     1s        -0.0019    0.0032    0.0002   -0.0000    0.0016   -0.0024    0.0015    0.0009    0.0013   -0.0007
      116 F7     2s         0.3903   -0.6677   -0.0434   -0.0071    0.1065   -0.2003    0.1126    0.0732    0.1656   -0.0846
      117 F7     *s        -0.0076    0.0137   -0.0031   -0.0009    0.0032   -0.0177    0.0129    0.0130    0.0501   -0.0263
      118 F7     2px        0.0133   -0.0050    0.0077    0.0016   -0.0470    0.0540    0.1442    0.1448    0.0023    0.2165
      119 F7     *px       -0.0012    0.0000   -0.0009    0.0005    0.0032   -0.0067   -0.0023   -0.0064   -0.0005   -0.0010
      120 F7     2py       -0.0101    0.0462   -0.0021    0.0011    0.0652   -0.1577    0.0916   -0.0280    0.4269    0.0769
      121 F7     *py        0.0028   -0.0070    0.0001   -0.0016   -0.0039    0.0082   -0.0018   -0.0007   -0.0095    0.0043
      122 F7     2pz        0.0369   -0.0436   -0.0012    0.0012   -0.0665    0.1824   -0.2265   -0.2560   -0.2464    0.3319
      123 F7     *pz       -0.0060    0.0090   -0.0004   -0.0005    0.0005   -0.0060    0.0055    0.0056    0.0122   -0.0077
      124 F7     *d2-      -0.0008    0.0005   -0.0004   -0.0000    0.0015   -0.0017   -0.0026   -0.0025    0.0010   -0.0033
      125 F7     *d1-      -0.0018    0.0044    0.0001   -0.0001    0.0032   -0.0076    0.0060    0.0031    0.0113   -0.0027
      126 F7     *d0        0.0025   -0.0013   -0.0003    0.0000   -0.0011    0.0035   -0.0056   -0.0067   -0.0009    0.0079
      127 F7     *d1+       0.0012   -0.0004    0.0004    0.0000   -0.0017    0.0019    0.0034    0.0027   -0.0009    0.0057
      128 F7     *d2+      -0.0000    0.0020    0.0001    0.0001    0.0010   -0.0028    0.0019   -0.0006    0.0065    0.0019
      129 F8     1s        -0.0019   -0.0032    0.0002   -0.0000    0.0016   -0.0024    0.0015    0.0009   -0.0013   -0.0007
      130 F8     2s         0.3903    0.6677   -0.0434   -0.0071    0.1065   -0.2003    0.1126    0.0732   -0.1656   -0.0846
      131 F8     *s        -0.0076   -0.0137   -0.0031   -0.0009    0.0032   -0.0177    0.0129    0.0130   -0.0501   -0.0263
      132 F8     2px        0.0133    0.0050    0.0077    0.0016   -0.0470    0.0540    0.1442    0.1448   -0.0023    0.2165
      133 F8     *px       -0.0012   -0.0000   -0.0009    0.0005    0.0032   -0.0067   -0.0023   -0.0064    0.0005   -0.0010
      134 F8     2py       -0.0101   -0.0462   -0.0021    0.0011    0.0652   -0.1577    0.0916   -0.0280   -0.4269    0.0769
      135 F8     *py        0.0028    0.0070    0.0001   -0.0016   -0.0039    0.0082   -0.0018   -0.0007    0.0095    0.0043
      136 F8     2pz       -0.0369   -0.0436    0.0012   -0.0012    0.0665   -0.1824    0.2265    0.2560   -0.2464   -0.3319
      137 F8     *pz        0.0060    0.0090    0.0004    0.0005   -0.0005    0.0060   -0.0055   -0.0056    0.0122    0.0077
      138 F8     *d2-      -0.0008   -0.0005   -0.0004   -0.0000    0.0015   -0.0017   -0.0026   -0.0025   -0.0010   -0.0033
      139 F8     *d1-       0.0018    0.0044   -0.0001    0.0001   -0.0032    0.0076   -0.0060   -0.0031    0.0113    0.0027
      140 F8     *d0        0.0025    0.0013   -0.0003    0.0000   -0.0011    0.0035   -0.0056   -0.0067    0.0009    0.0079
      141 F8     *d1+      -0.0012   -0.0004   -0.0004   -0.0000    0.0017   -0.0019   -0.0034   -0.0027   -0.0009   -0.0057
      142 F8     *d2+      -0.0000   -0.0020    0.0001    0.0001    0.0010   -0.0028    0.0019   -0.0006   -0.0065    0.0019
      143 H9     1s         0.0009   -0.0003    0.0393    0.0315    0.1680    0.0731   -0.1027    0.2271   -0.0066    0.1189
      144 H9     *s        -0.0016   -0.0004   -0.0163   -0.0155   -0.0773   -0.0366    0.0422   -0.0936    0.0026   -0.0492
      145 H9     *px       -0.0000   -0.0000   -0.0017   -0.0010   -0.0009    0.0003    0.0020   -0.0010   -0.0001    0.0001
      146 H9     *py        0.0000   -0.0000    0.0031    0.0026    0.0092    0.0027   -0.0043    0.0078   -0.0002    0.0033
      147 H9     *pz       -0.0000    0.0000    0.0041    0.0028    0.0119    0.0045   -0.0064    0.0130   -0.0002    0.0068
      148 H10    1s         0.0009    0.0003    0.0393    0.0315    0.1680    0.0731   -0.1027    0.2271    0.0066    0.1189
      149 H10    *s        -0.0016    0.0004   -0.0163   -0.0155   -0.0773   -0.0366    0.0422   -0.0936   -0.0026   -0.0492
      150 H10    *px       -0.0000    0.0000   -0.0017   -0.0010   -0.0009    0.0003    0.0020   -0.0010    0.0001    0.0001
      151 H10    *py        0.0000    0.0000    0.0031    0.0026    0.0092    0.0027   -0.0043    0.0078    0.0002    0.0033
      152 H10    *pz        0.0000    0.0000   -0.0041   -0.0028   -0.0119   -0.0045    0.0064   -0.0130   -0.0002   -0.0068
      153 H11    1s         0.0002   -0.0000    0.0052    0.0078    0.1420    0.1329    0.1793   -0.1817   -0.0024   -0.0683
      154 H11    *s        -0.0002    0.0002   -0.0015   -0.0028   -0.0649   -0.0614   -0.0760    0.0735    0.0015    0.0268
      155 H11    *px       -0.0001    0.0000   -0.0005   -0.0004    0.0001    0.0012    0.0027   -0.0027   -0.0000   -0.0006
      156 H11    *py       -0.0000    0.0000   -0.0002   -0.0004   -0.0076   -0.0071   -0.0078    0.0065    0.0001    0.0022
      157 H11    *pz       -0.0000   -0.0000    0.0008    0.0009    0.0102    0.0089    0.0113   -0.0109   -0.0001   -0.0040
      158 H12    1s         0.0002    0.0000    0.0052    0.0078    0.1420    0.1329    0.1793   -0.1817    0.0024   -0.0683
      159 H12    *s        -0.0002   -0.0002   -0.0015   -0.0028   -0.0649   -0.0614   -0.0760    0.0735   -0.0015    0.0268
      160 H12    *px       -0.0001   -0.0000   -0.0005   -0.0004    0.0001    0.0012    0.0027   -0.0027    0.0000   -0.0006
      161 H12    *py       -0.0000   -0.0000   -0.0002   -0.0004   -0.0076   -0.0071   -0.0078    0.0065   -0.0001    0.0022
      162 H12    *pz        0.0000   -0.0000   -0.0008   -0.0009   -0.0102   -0.0089   -0.0113    0.0109   -0.0001    0.0040
      163 H13    1s         0.0001   -0.0000    0.0042    0.0061    0.1415    0.1430    0.1935   -0.1678   -0.0000   -0.0477
      164 H13    *s        -0.0003    0.0000   -0.0027   -0.0028   -0.0683   -0.0639   -0.0806    0.0638    0.0000    0.0182
      165 H13    *px        0.0000   -0.0000   -0.0008   -0.0010   -0.0127   -0.0110   -0.0126    0.0102   -0.0000    0.0028
      166 H13    *py        0.0000    0.0000   -0.0001    0.0001    0.0044    0.0045    0.0061   -0.0058    0.0000   -0.0020
      167 H13    *pz        0.0000   -0.0000   -0.0000   -0.0000    0.0000    0.0000   -0.0000   -0.0000    0.0001   -0.0000
 
          Orbital           21        22        23        24        25        26        27        28        29        30    
          Energy           -0.7975   -0.7261   -0.7219   -0.7051   -0.7005   -0.6712   -0.6711   -0.6702   -0.6549   -0.6062
          Occ. No.          2.0000    2.0000    2.0000    2.0000    2.0000    2.0000    2.0000    2.0000    2.0000    2.0000
 
        1 O1     1s        -0.0012    0.0000   -0.0004   -0.0005    0.0000    0.0000    0.0000    0.0005    0.0000    0.0000
        2 O1     2s        -0.2517    0.0000   -0.0083    0.0146    0.0000    0.0000   -0.0384    0.0638    0.0000    0.0000
        3 O1     *s        -0.0681   -0.0000    0.0170   -0.0112   -0.0000    0.0000   -0.0163    0.0214   -0.0000   -0.0000
        4 O1     2px       -0.3418   -0.0000    0.0909   -0.2725   -0.0000   -0.0000    0.1064   -0.1223    0.0000    0.0000
        5 O1     *px        0.0392    0.0000   -0.0118    0.0155    0.0000    0.0000   -0.0127    0.0025    0.0000    0.0000
        6 O1     2py       -0.3863    0.0000   -0.0342    0.0196   -0.0000    0.0000   -0.1113    0.3550    0.0000   -0.0000
        7 O1     *py        0.0249    0.0000   -0.0068    0.0251    0.0000   -0.0000    0.0097   -0.0088    0.0000    0.0000
        8 O1     2pz        0.0000   -0.2990   -0.0000   -0.0000    0.4293   -0.0768   -0.0000   -0.0000   -0.0062   -0.3215
        9 O1     *pz       -0.0000   -0.0001   -0.0000    0.0000   -0.0090   -0.0019   -0.0000   -0.0000    0.0052   -0.0053
       10 O1     *d2-       0.0134   -0.0000   -0.0019    0.0070   -0.0000    0.0000   -0.0038    0.0017   -0.0000   -0.0000
       11 O1     *d1-      -0.0000    0.0077    0.0000    0.0000   -0.0121    0.0026    0.0000    0.0000    0.0004    0.0078
       12 O1     *d0       -0.0062    0.0000   -0.0004    0.0006    0.0000    0.0000   -0.0015    0.0045    0.0000    0.0000
       13 O1     *d1+      -0.0000    0.0011    0.0000   -0.0000    0.0023   -0.0015   -0.0000   -0.0000   -0.0007    0.0076
       14 O1     *d2+      -0.0101    0.0000   -0.0002    0.0007    0.0000    0.0000   -0.0027    0.0098    0.0000   -0.0000
       15 O2     1s         0.0005    0.0000   -0.0022    0.0014   -0.0000    0.0000   -0.0003   -0.0002    0.0000    0.0000
       16 O2     2s        -0.1907    0.0000   -0.2109    0.2906    0.0000    0.0000   -0.0494    0.0068    0.0000    0.0000
       17 O2     *s        -0.0176   -0.0000   -0.0305    0.0859    0.0000   -0.0000    0.0098    0.0091   -0.0000   -0.0000
       18 O2     2px        0.1719   -0.0000   -0.0963    0.0864    0.0000   -0.0000    0.1523   -0.2517   -0.0000    0.0000
       19 O2     *px       -0.0114    0.0000   -0.0018   -0.0073    0.0000    0.0000   -0.0042    0.0140    0.0000    0.0000
       20 O2     2py        0.1911   -0.0000    0.3143   -0.5314   -0.0000   -0.0000    0.1362    0.0027    0.0000   -0.0000
       21 O2     *py       -0.0066   -0.0000   -0.0158    0.0519   -0.0000    0.0000   -0.0067    0.0024   -0.0000   -0.0000
       22 O2     2pz       -0.0000   -0.1195   -0.0000   -0.0000    0.1480    0.0077    0.0000    0.0000    0.0018   -0.3742
       23 O2     *pz       -0.0000    0.0126    0.0000    0.0000   -0.0063   -0.0038   -0.0000   -0.0000    0.0027    0.0108
       24 O2     *d2-       0.0067    0.0000   -0.0030    0.0032    0.0000   -0.0000    0.0044   -0.0096    0.0000    0.0000
       25 O2     *d1-       0.0000   -0.0056   -0.0000   -0.0000    0.0063    0.0002    0.0000    0.0000    0.0001   -0.0147
       26 O2     *d0       -0.0031    0.0000   -0.0068    0.0095    0.0000    0.0000   -0.0018    0.0004    0.0000    0.0000
       27 O2     *d1+       0.0000   -0.0005   -0.0000    0.0000    0.0001   -0.0005   -0.0000   -0.0000   -0.0002    0.0004
       28 O2     *d2+      -0.0072    0.0000   -0.0111    0.0189    0.0000    0.0000   -0.0046   -0.0008    0.0000    0.0000
       29 C3     1s         0.0016    0.0000    0.0008   -0.0003   -0.0000    0.0000   -0.0028    0.0021    0.0000    0.0000
       30 C3     2s         0.3318    0.0000    0.1803   -0.2389   -0.0000    0.0000   -0.0331    0.1276   -0.0000    0.0000
       31 C3     *s         0.0001   -0.0000    0.0051   -0.0075   -0.0000   -0.0000    0.0033    0.0004   -0.0000   -0.0000
       32 C3     *s        -0.1239    0.0000   -0.1180    0.1026    0.0000    0.0000   -0.0347   -0.0000    0.0000    0.0000
       33 C3     2px        0.3094    0.0000   -0.0606    0.1085    0.0000   -0.0000    0.1225   -0.2797    0.0000    0.0000
       34 C3     *px       -0.0067   -0.0000   -0.0006    0.0024   -0.0000    0.0000   -0.0037   -0.0043   -0.0000   -0.0000
       35 C3     *px       -0.0742   -0.0000    0.0003   -0.0232   -0.0000   -0.0000   -0.0231    0.0890   -0.0000   -0.0000
       36 C3     2py        0.0501    0.0000   -0.1959    0.3680    0.0000    0.0000   -0.1393    0.0679   -0.0000   -0.0000
       37 C3     *py        0.0149    0.0000    0.0231   -0.0223    0.0000   -0.0000    0.0061    0.0010    0.0000    0.0000
       38 C3     *py       -0.0099    0.0000    0.0660   -0.1792    0.0000   -0.0000    0.0662    0.0058    0.0000    0.0000
       39 C3     2pz        0.0000   -0.1812   -0.0000   -0.0000    0.1956    0.0058    0.0000    0.0000    0.0001   -0.3527
       40 C3     *pz       -0.0000   -0.0008   -0.0000    0.0000    0.0010   -0.0143   -0.0000   -0.0000   -0.0009   -0.0081
       41 C3     *pz        0.0000    0.0095    0.0000    0.0000   -0.0362    0.0142    0.0000    0.0000   -0.0037    0.0325
       42 C3     *d2-       0.0082    0.0000    0.0014    0.0070    0.0000    0.0000   -0.0061    0.0033    0.0000    0.0000
       43 C3     *d2-       0.0087   -0.0000   -0.0009    0.0124    0.0000    0.0000   -0.0037    0.0120   -0.0000    0.0000
       44 C3     *d1-       0.0000   -0.0011   -0.0000   -0.0000   -0.0002   -0.0015   -0.0000   -0.0000   -0.0001    0.0086
       45 C3     *d1-      -0.0000   -0.0032   -0.0000   -0.0000   -0.0041   -0.0029   -0.0000   -0.0000   -0.0005    0.0158
       46 C3     *d0       -0.0068    0.0000   -0.0030    0.0016    0.0000    0.0000   -0.0017    0.0007    0.0000    0.0000
       47 C3     *d0       -0.0017   -0.0000    0.0055   -0.0063   -0.0000   -0.0000    0.0086    0.0026   -0.0000   -0.0000
       48 C3     *d1+       0.0000   -0.0046   -0.0000   -0.0000    0.0071   -0.0024   -0.0000   -0.0000    0.0000   -0.0066
       49 C3     *d1+      -0.0000   -0.0080   -0.0000   -0.0000    0.0209    0.0069    0.0000    0.0000   -0.0011   -0.0089
       50 C3     *d2+       0.0016   -0.0000   -0.0028    0.0073   -0.0000    0.0000   -0.0027   -0.0089   -0.0000   -0.0000
       51 C3     *d2+       0.0184    0.0000    0.0066    0.0101    0.0000   -0.0000    0.0261   -0.0078    0.0000    0.0000
       52 C3     *f3-       0.0017    0.0000    0.0001    0.0001    0.0000   -0.0000    0.0014   -0.0018    0.0000    0.0000
       53 C3     *f2-      -0.0000   -0.0061   -0.0000   -0.0000    0.0048    0.0019    0.0000    0.0000    0.0002   -0.0041
       54 C3     *f1-      -0.0025   -0.0000   -0.0001   -0.0014   -0.0000   -0.0000    0.0018   -0.0006   -0.0000   -0.0000
       55 C3     *f0       -0.0000    0.0045    0.0000    0.0000   -0.0089    0.0033    0.0000    0.0000   -0.0002    0.0114
       56 C3     *f1+      -0.0048    0.0000    0.0003   -0.0019   -0.0000    0.0000   -0.0023    0.0036    0.0000   -0.0000
       57 C3     *f2+       0.0000    0.0028    0.0000    0.0000   -0.0017   -0.0039   -0.0000   -0.0000   -0.0004    0.0064
       58 C3     *f3+      -0.0044   -0.0000    0.0063   -0.0035   -0.0000    0.0000   -0.0046   -0.0022   -0.0000   -0.0000
       59 C2     1s        -0.0004    0.0000   -0.0015    0.0004    0.0000    0.0000    0.0013   -0.0034    0.0000    0.0000
       60 C2     2s        -0.0637    0.0000   -0.0237    0.0109    0.0000   -0.0000    0.0142   -0.0319    0.0000    0.0000
       61 C2     *s         0.0276   -0.0000    0.0281    0.0005   -0.0000   -0.0000   -0.0248    0.0594   -0.0000   -0.0000
       62 C2     2px       -0.1276   -0.0000   -0.0412   -0.0906   -0.0000    0.0000   -0.1295    0.0759   -0.0000   -0.0000
       63 C2     *px        0.0265   -0.0000    0.0295    0.0641   -0.0000   -0.0000    0.0905   -0.0509   -0.0000   -0.0000
       64 C2     2py        0.0108    0.0000   -0.0872   -0.1048   -0.0000    0.0000   -0.0769   -0.1142   -0.0000    0.0000
       65 C2     *py       -0.0019    0.0000    0.0633    0.0775    0.0000   -0.0000    0.0615    0.0744    0.0000    0.0000
[...]
   136 F8     2pz       -0.0193   -0.0262   -0.0347   -0.0366   -0.0796    0.1605    0.0445
   137 F8     *pz        0.0042   -0.0011   -0.0019    0.0002   -0.0047    0.0084    0.0148
   138 F8     *d2-       0.0003   -0.0008    0.0004   -0.0007    0.0007    0.0001   -0.0024
   139 F8     *d1-      -0.0029    0.0018   -0.0002    0.0007    0.0006    0.0011    0.0005
   140 F8     *d0        0.0002    0.0005    0.0008    0.0003    0.0015   -0.0039   -0.0016
   141 F8     *d1+       0.0011   -0.0011    0.0003   -0.0008    0.0011    0.0013    0.0003
   142 F8     *d2+       0.0018   -0.0012    0.0004   -0.0000    0.0002   -0.0024   -0.0010
   143 H9     1s         0.0230   -0.0117    0.2871    0.4815    0.0404   -0.0677   -0.0745
   144 H9     *s         0.0005    0.0042   -0.0747   -0.1135   -0.0196    0.0344   -0.1346
   145 H9     *px       -0.0036   -0.0049   -0.0021    0.0002    0.0017   -0.0027   -0.0033
   146 H9     *py        0.0002   -0.0024    0.0001    0.0153    0.0017   -0.0023   -0.0012
   147 H9     *pz        0.0015    0.0011    0.0127    0.0085    0.0007   -0.0024    0.0025
   148 H10    1s        -0.0068   -0.0156    0.2887   -0.4819   -0.0363   -0.0175    0.0745
   149 H10    *s         0.0098    0.0053   -0.0752    0.1136    0.0177    0.0176    0.1346
   150 H10    *px       -0.0034   -0.0049   -0.0021   -0.0002   -0.0017   -0.0029    0.0033
   151 H10    *py       -0.0008   -0.0025    0.0002   -0.0154   -0.0016   -0.0006    0.0012
   152 H10    *pz       -0.0007   -0.0010   -0.0127    0.0086    0.0005    0.0009    0.0025
   153 H11    1s         0.1685   -0.0405    0.2388   -0.3345   -0.0083   -0.0868   -0.0061
   154 H11    *s        -0.0552    0.0102   -0.0458    0.0590    0.0043    0.0272    0.0589
   155 H11    *px        0.0001    0.0099    0.0028   -0.0000   -0.0001    0.0008   -0.0024
   156 H11    *py       -0.0005    0.0007    0.0005    0.0109    0.0000    0.0010   -0.0019
   157 H11    *pz        0.0071   -0.0011    0.0107   -0.0049    0.0002   -0.0031    0.0003
   158 H12    1s         0.1289   -0.0459    0.2411    0.3345    0.0092   -0.0276    0.0061
   159 H12    *s        -0.0410    0.0121   -0.0466   -0.0589   -0.0045    0.0056   -0.0589
   160 H12    *px       -0.0003    0.0098    0.0028    0.0000    0.0002    0.0013    0.0024
   161 H12    *py        0.0008    0.0009    0.0005   -0.0109    0.0000   -0.0008    0.0019
   162 H12    *pz       -0.0062    0.0012   -0.0107   -0.0049    0.0002    0.0018    0.0003
   163 H13    1s        -0.1369    0.5140   -0.0867    0.0000   -0.0006    0.1204   -0.0000
   164 H13    *s         0.0429   -0.1379    0.0284   -0.0000    0.0001   -0.0248   -0.0000
   165 H13    *px        0.0063   -0.0174    0.0063   -0.0000    0.0000   -0.0035    0.0000
   166 H13    *py        0.0017    0.0089    0.0085   -0.0000    0.0000    0.0011    0.0000
   167 H13    *pz       -0.0005   -0.0001    0.0000    0.0083    0.0001    0.0007   -0.0003
--
 
      Von Neumann Entropy (Root   1) =  1.00000
 

      Mulliken population analysis for root number:  1
      -----------------------------------------------
 
 
++    Molecular charges:
      ------------------
 
      Mulliken charges per centre and basis function type
      ---------------------------------------------------
 
                O1      O2      C3      C2      C4      C5      F6      F7      F8      H9      H10     H11   
      1s       2.0019  2.0021  0.9992  2.0028  2.0033  2.0038  2.0013  2.0013  2.0013  1.2650  1.2650  1.2574
      2s       1.8035  1.8289  1.4349  1.3926  1.4720  1.4490  1.9191  1.9172  1.9172  0.0000  0.0000  0.0000
      2px      1.2337  1.7514  1.6408  0.8698  0.7973  1.1383  1.6449  1.9061  1.9061  0.0000  0.0000  0.0000
      2pz      1.8109  1.5518  1.5811  0.8272  1.2425  1.1892  1.9197  1.6436  1.6436  0.0000  0.0000  0.0000
      2py      1.5131  1.2213  1.5923  0.8075  1.1295  1.1319  1.7661  1.7788  1.7788  0.0000  0.0000  0.0000
      *s      -0.0616 -0.1051 -0.1627 -0.6569 -0.4157 -0.4188 -0.0030 -0.0018 -0.0018 -0.3483 -0.3483 -0.3449
      *px     -0.1194 -0.0039 -0.5527 -0.1596 -0.1089 -0.1759 -0.0197  0.0161  0.0161  0.0022  0.0022  0.0050
      *pz      0.0116  0.0297 -0.3066 -0.1368 -0.2132 -0.1603  0.0062 -0.0192 -0.0192  0.0167  0.0167  0.0159
      *py     -0.0187 -0.1272 -0.5091 -0.1618 -0.1731 -0.1704 -0.0178 -0.0034 -0.0034  0.0107  0.0107  0.0104
      *d2+     0.0028  0.0115  0.0745  0.0557  0.0278  0.0070  0.0015  0.0007  0.0007  0.0000  0.0000  0.0000
      *d1+     0.0035  0.0000  0.0340  0.0565  0.0156  0.0028  0.0008  0.0008  0.0008  0.0000  0.0000  0.0000
      *d0      0.0034  0.0037  0.0186  0.0788  0.0192  0.0119  0.0013  0.0019  0.0019  0.0000  0.0000  0.0000
      *d1-     0.0023  0.0070  0.0854  0.0962  0.0284  0.0195  0.0005  0.0033  0.0033  0.0000  0.0000  0.0000
      *d2-     0.0121  0.0048  0.1538  0.0817  0.0308  0.0176  0.0035  0.0005  0.0005  0.0000  0.0000  0.0000
      *f3+     0.0000  0.0000  0.0138  0.0000  0.0000  0.0000  0.0000  0.0000  0.0000  0.0000  0.0000  0.0000
      *f2+     0.0000  0.0000  0.0055  0.0000  0.0000  0.0000  0.0000  0.0000  0.0000  0.0000  0.0000  0.0000
      *f1+     0.0000  0.0000  0.0022  0.0000  0.0000  0.0000  0.0000  0.0000  0.0000  0.0000  0.0000  0.0000
      *f0      0.0000  0.0000  0.0062  0.0000  0.0000  0.0000  0.0000  0.0000  0.0000  0.0000  0.0000  0.0000
      *f1-     0.0000  0.0000  0.0025  0.0000  0.0000  0.0000  0.0000  0.0000  0.0000  0.0000  0.0000  0.0000
      *f2-     0.0000  0.0000  0.0043  0.0000  0.0000  0.0000  0.0000  0.0000  0.0000  0.0000  0.0000  0.0000
      *f3-     0.0000  0.0000  0.0059  0.0000  0.0000  0.0000  0.0000  0.0000  0.0000  0.0000  0.0000  0.0000
      Total    8.1991  8.1761  6.1238  5.1538  5.8554  6.0459  9.2246  9.2459  9.2459  0.9463  0.9463  0.9438
 
      N-E     -0.1991 -0.1761 -0.1238  0.8462  0.1446 -0.0459 -0.2246 -0.2459 -0.2459  0.0537  0.0537  0.0562
 
                H12     H13   
      1s       1.2574  1.2604
      2s       0.0000  0.0000
      2px      0.0000  0.0000
      2pz      0.0000  0.0000
      2py      0.0000  0.0000
      *s      -0.3449 -0.3425
      *px      0.0050  0.0190
      *pz      0.0159  0.0055
      *py      0.0104  0.0068
      *d2+     0.0000  0.0000
      *d1+     0.0000  0.0000
      *d0      0.0000  0.0000
      *d1-     0.0000  0.0000
      *d2-     0.0000  0.0000
      *f3+     0.0000  0.0000
      *f2+     0.0000  0.0000
      *f1+     0.0000  0.0000
      *f0      0.0000  0.0000
      *f1-     0.0000  0.0000
      *f2-     0.0000  0.0000
      *f3-     0.0000  0.0000
      Total    0.9438  0.9493
 
      N-E      0.0562  0.0507
 
      Total electronic charge=   72.000000
 
      Total            charge=   -0.000000
--
 
 

      Expectation values of various properties for root number:  1
      -----------------------------------------------------------
 
 
++    Molecular properties:
      ---------------------
 
      Charge (e):
                      =   -0.0000
      Dipole Moment (Debye):
      Origin of the operator (Ang)=    0.0000    0.0000    0.0000
                   X=  3.5747E+00               Y=  1.0358E+00               Z=  2.6219E-08           Total=  3.7218E+00
      Quadrupole Moment (Debye*Ang):
      Origin of the operator (Ang)=    0.0000   -0.0000    0.0000
                  XX= -4.1539E+01              XY= -6.0085E-01              XZ=  1.8338E-08              YY= -5.6102E+01
                  YZ= -1.9464E-08              ZZ= -5.0952E+01
      In traceless form (Debye*Ang)
                  XX=  1.1988E+01              XY= -9.0127E-01              XZ=  2.7506E-08              YY= -9.8562E+00
                  YZ= -2.9196E-08              ZZ= -2.1314E+00
--
 
 
  Input file to MOLDEN was generated!
 
      Average orbitals are written to the RASORB file
      Natural orbitals for root   1 are written to the RASORB.1 file
      Spin density orbitals for root   1 are written to the SPDORB.1 file
 
--- Stop Module: rasscf at Wed Apr 13 16:41:25 2022 /rc=_RC_ALL_IS_WELL_ ---
*** files: coo_ground_opt_mull_pop.rasscf.molden coo_ground_opt_mull_pop.RasOrb coo_ground_opt_mull_pop.RasOrb.1 coo_ground_opt_mull_pop.rasscf.h5 coo_ground_opt_mull_pop.SpdOrb.1
           xmldump
    saved to directory /home/oxygen16/FOUDAAE/ESCA_Molecule/auger/electronic_structure/COO/ANO-RCC/triple_zeta/new/ground_opt/mull_pop
--- Module rasscf spent 52 seconds ---

*** symbolic link created: INPORB -> coo_ground_opt_mull_pop.RasOrb
--- Start Module: grid_it at Wed Apr 13 16:41:25 2022 ---
 
()()()()()()()()()()()()()()()()()()()()()()()()()()()()()()()()()()()()()()()()()()()()()()()()()()

                                              &GRID_IT

                       only a single process is used, running in SERIAL mode
                       available to each process: 10 GB of memory, 20 threads
                                             pid: 45401
()()()()()()()()()()()()()()()()()()()()()()()()()()()()()()()()()()()()()()()()()()()()()()()()()()
 
 iKey=                    34
 INPORB file: 
 /home/oxygen16/FOUDAAE/ESCA_Molecule/auger/electronic_structure/COO/ANO-RCC/tri
 ple_zeta/new/ground_opt/mull_pop/coo_ground_opt_mull_pop.RasOrb.1
 iKey=                    32
 iKey=                    38
 isLONGPRT= F
 
      Cartesian coordinates:
      -----------------------------------------
      No.  Label     X         Y         Z     
      -----------------------------------------
       1   O1         2.10457   0.46241   0.00000
       2   O2         0.26301  -3.40850   0.00000
       3   C3         0.17019  -1.13895   0.00000
       4   C2        -2.33157   0.36076   0.00000
       5   C4         4.57811  -0.72714   0.00000
       6   C5         6.51383   1.37227   0.00000
       7   F6        -4.28996  -1.19974   0.00000
       8   F7        -2.47994   1.83390  -2.04537
       9   F8        -2.47994   1.83390   2.04537
      10   H9         4.71685  -1.92617  -1.67076
      11   H10        4.71685  -1.92617   1.67076
      12   H11        6.30766   2.55507  -1.67454
      13   H12        6.30766   2.55507   1.67454
      14   H13        8.40889   0.55808   0.00000
      -----------------------------------------
      Grid Origin      =    -8.000000   -7.000000   -6.000000
      Grid Axis Length =    20.000000   12.000000   12.000000
      -----------------------------------------
 
 
   Input vectors read from INPORB
   Orbital file label: * RASSCF natural orbitals for root number  1 E=     -591.753685650462
  Number of grid points in file:                   83509
 
  Total number of MOs               :                   167
  Number MOs for grid               :                    20
  Batches processed in increments of:                 18432
 
GridName=  1   19      0.0000 (2.00) 2
GridName=  1   20      0.0000 (2.00) 2
GridName=  1   21      0.0000 (2.00) 2
GridName=  1   22      0.0000 (2.00) 2
GridName=  1   23      0.0000 (2.00) 2
GridName=  1   24      0.0000 (2.00) 2
GridName=  1   25      0.0000 (2.00) 2
GridName=  1   26      0.0000 (2.00) 2
GridName=  1   27      0.0000 (2.00) 2
GridName=  1   28      0.0000 (2.00) 2
GridName=  1   29      0.0000 (2.00) 2
GridName=  1   30      0.0000 (2.00) 2
GridName=  1   31      0.0000 (2.00) 2
GridName=  1   32      0.0000 (2.00) 2
GridName=  1   33      0.0000 (2.00) 2
GridName=  1   34      0.0000 (2.00) 2
GridName=  1   35      0.0000 (2.00) 2
GridName=  1   36      0.0000 (2.00) 2
GridName=  1   37      0.0000 (1.00) 3
 
 isMULL= T
 
 
 
         **************************
++        Charges per occupied MO
         **************************
 
 
 
          MO:  19      Symm.: 1      Occ. No.: 2.0000
      Mulliken charges per centre
      ---------------------------
 
                O1      O2      C3      C2      C4      C5      F6      F7      F8      H9      H10     H11   
      Total    0.0401  0.0011  0.0179  0.3635  0.0062  0.0245  0.3916  0.5658  0.5644  0.0040  0.0036  0.0087
 
 
                H12     H13   
      Total    0.0086  0.0001
 
 
 
          MO:  20      Symm.: 1      Occ. No.: 2.0000
      Mulliken charges per centre
      ---------------------------
 
                O1      O2      C3      C2      C4      C5      F6      F7      F8      H9      H10     H11   
      Total    0.0088  0.0042  0.0094  0.3804  0.0353  0.0328  0.6671  0.4009  0.4143  0.0108  0.0098  0.0079
 
 
                H12     H13   
      Total    0.0091  0.0093
 
 
 
          MO:  21      Symm.: 1      Occ. No.: 2.0000
      Mulliken charges per centre
      ---------------------------
 
                O1      O2      C3      C2      C4      C5      F6      F7      F8      H9      H10     H11   
      Total    0.6469  0.3555  0.4464  0.0368  0.1867  0.0149  0.1220  0.0407  0.0353  0.0553  0.0519  0.0015
 
 
                H12     H13   
      Total    0.0024  0.0038
 
 
 
          MO:  22      Symm.: 1      Occ. No.: 2.0000
      Mulliken charges per centre
      ---------------------------
 
                O1      O2      C3      C2      C4      C5      F6      F7      F8      H9      H10     H11   
      Total    0.3777  0.0006  0.0888  0.0468  0.0536 -0.0003  0.2471  0.5842  0.5813  0.0100  0.0102  0.0000
 
 
                H12     H13   
      Total    0.0000 -0.0000
 
 
 
          MO:  23      Symm.: 1      Occ. No.: 2.0000
      Mulliken charges per centre
      ---------------------------
 
                O1      O2      C3      C2      C4      C5      F6      F7      F8      H9      H10     H11   
      Total    0.0350  0.2760  0.1093  0.0571  0.0249  0.0028  0.3480  0.5679  0.5624  0.0080  0.0078  0.0004
 
 
                H12     H13   
      Total    0.0004  0.0000
 
 
 
          MO:  24      Symm.: 1      Occ. No.: 2.0000
      Mulliken charges per centre
      ---------------------------
 
                O1      O2      C3      C2      C4      C5      F6      F7      F8      H9      H10     H11   
      Total    0.1917  0.6579  0.3611  0.0431  0.1146  0.0128  0.3236  0.1031  0.1321  0.0295  0.0260  0.0012
 
 
                H12     H13   
      Total    0.0023  0.0007
 
 
 
          MO:  25      Symm.: 1      Occ. No.: 2.0000
      Mulliken charges per centre
      ---------------------------
 
                O1      O2      C3      C2      C4      C5      F6      F7      F8      H9      H10     H11   
      Total    0.8840 -0.0014  0.0915  0.0379  0.1348  0.1646  0.1774  0.1710  0.1709  0.0090  0.0090  0.0753
 
 
                H12     H13   
      Total    0.0753  0.0008
 
 
 
          MO:  26      Symm.: 1      Occ. No.: 2.0000
      Mulliken charges per centre
      ---------------------------
 
                O1      O2      C3      C2      C4      C5      F6      F7      F8      H9      H10     H11   
      Total    0.0931  0.0363  0.0096  0.0808  0.0227  0.0010  0.3409  0.7025  0.7037  0.0042  0.0042  0.0005
 
 
                H12     H13   
      Total    0.0005  0.0000
 
 
 
          MO:  27      Symm.: 1      Occ. No.: 2.0000
      Mulliken charges per centre
      ---------------------------
 
                O1      O2      C3      C2      C4      C5      F6      F7      F8      H9      H10     H11   
      Total    0.2081  0.0249  0.0766  0.0514  0.0862  0.1733  0.3179  0.5064  0.3927  0.0124  0.0069  0.0349
 
 
                H12     H13   
      Total    0.0504  0.0578
 
 
 
          MO:  28      Symm.: 1      Occ. No.: 2.0000
      Mulliken charges per centre
      ---------------------------
 
                O1      O2      C3      C2      C4      C5      F6      F7      F8      H9      H10     H11   
      Total    0.0997  0.0614  0.1322  0.0480  0.0433  0.2612  0.7442  0.1401  0.2172  0.0118  0.0075  0.0388
 
 
                H12     H13   
      Total    0.0514  0.1431
 
 
 
          MO:  29      Symm.: 1      Occ. No.: 2.0000
      Mulliken charges per centre
      ---------------------------
 
                O1      O2      C3      C2      C4      C5      F6      F7      F8      H9      H10     H11   
      Total    0.0955  0.3875  0.0561  0.0089  0.0143  0.0254  0.5176  0.4085  0.4540  0.0102  0.0004  0.0147
 
 
                H12     H13   
      Total    0.0027  0.0041
 
 
 
          MO:  30      Symm.: 1      Occ. No.: 2.0000
      Mulliken charges per centre
      ---------------------------
 
                O1      O2      C3      C2      C4      C5      F6      F7      F8      H9      H10     H11   
      Total    0.3468  0.0505  0.0459  0.0258  0.2149  0.5714  0.0064  0.0828  0.0539  0.0772  0.1092  0.2028
 
 
                H12     H13   
      Total    0.2097  0.0027
 
 
 
          MO:  31      Symm.: 1      Occ. No.: 2.0000
      Mulliken charges per centre
      ---------------------------
 
                O1      O2      C3      C2      C4      C5      F6      F7      F8      H9      H10     H11   
      Total    0.2580  0.2459  0.3897  0.1867  0.1326  0.1634  0.1549  0.1763  0.1875  0.0019  0.0007  0.0449
 
 
                H12     H13   
      Total    0.0265  0.0310
 
 
 
          MO:  32      Symm.: 1      Occ. No.: 2.0000
      Mulliken charges per centre
      ---------------------------
 
                O1      O2      C3      C2      C4      C5      F6      F7      F8      H9      H10     H11   
      Total    0.3551  0.0112  0.0424  0.0104  0.3043  0.6650  0.1090  0.0303  0.0275  0.0014  0.0016  0.0053
 
 
                H12     H13   
      Total    0.0060  0.4305
 
 
 
          MO:  33      Symm.: 1      Occ. No.: 2.0000
      Mulliken charges per centre
      ---------------------------
 
                O1      O2      C3      C2      C4      C5      F6      F7      F8      H9      H10     H11   
      Total    0.3045  0.0576  0.0616  0.0053  0.5736  0.4898  0.0086  0.0051  0.0044  0.1331  0.1346  0.1039
 
 
                H12     H13   
      Total    0.1057  0.0120
 
 
 
          MO:  34      Symm.: 1      Occ. No.: 2.0000
      Mulliken charges per centre
      ---------------------------
 
                O1      O2      C3      C2      C4      C5      F6      F7      F8      H9      H10     H11   
      Total    0.0102  0.0128  0.0026  0.0022  0.6262  0.2621  0.0159  0.0099  0.0100  0.3512  0.3517  0.1718
 
 
                H12     H13   
      Total    0.1717  0.0017
 
 
 
          MO:  35      Symm.: 1      Occ. No.: 2.0000
      Mulliken charges per centre
      ---------------------------
 
                O1      O2      C3      C2      C4      C5      F6      F7      F8      H9      H10     H11   
      Total    0.0126  1.3038  0.6025 -0.0024  0.0087 -0.0002  0.0109  0.0284  0.0316  0.0022  0.0018  0.0000
 
 
                H12     H13   
      Total    0.0001  0.0000
 
 
 
          MO:  36      Symm.: 1      Occ. No.: 2.0000
      Mulliken charges per centre
      ---------------------------
 
                O1      O2      C3      C2      C4      C5      F6      F7      F8      H9      H10     H11   
      Total    0.1669  1.0149  0.1057  0.0661  0.0130  0.0285  0.1991  0.1922  0.1730  0.0058  0.0011  0.0106
 
 
                H12     H13   
      Total    0.0008  0.0223
 
 
 
          MO:  37      Symm.: 1      Occ. No.: 1.0000
      Mulliken charges per centre
      ---------------------------
 
                O1      O2      C3      C2      C4      C5      F6      F7      F8      H9      H10     H11   
      Total    0.0531  0.2277  0.5573  0.1137 -0.0003  0.0002  0.0027  0.0116  0.0116  0.0108  0.0108  0.0003
 
 
                H12     H13   
      Total    0.0003 -0.0000
 
 
 
--- Stop Module: grid_it at Wed Apr 13 16:41:36 2022 /rc=_RC_ALL_IS_WELL_ ---
*** files: coo_ground_opt_mull_pop.lus xmldump
    saved to directory /home/oxygen16/FOUDAAE/ESCA_Molecule/auger/electronic_structure/COO/ANO-RCC/triple_zeta/new/ground_opt/mull_pop
--- Module grid_it spent 10 seconds ---

.##################.
.# Happy landing! #.
.##################.

    Timing: Wall=138.34 User=2102.45 System=106.19
